
     Program BANDS v.7.4.1 starts on  5Nov2025 at 12:41: 8 

     This program is part of the open-source Quantum ESPRESSO suite
     for quantum simulation of materials; please cite
         "P. Giannozzi et al., J. Phys.:Condens. Matter 21 395502 (2009);
         "P. Giannozzi et al., J. Phys.:Condens. Matter 29 465901 (2017);
         "P. Giannozzi et al., J. Chem. Phys. 152 154105 (2020);
          URL http://www.quantum-espresso.org", 
     in publications or presentations arising from this work. More details at
     http://www.quantum-espresso.org/quote

     Parallel version (MPI), running on     1 processors

     MPI processes distributed on     1 nodes
     0 MiB available memory on the printing compute node when the environment starts


     Reading xml data from directory:

     ./tmp/si.save/

     IMPORTANT: XC functional enforced from input :
     Exchange-correlation= PBE
                           (   1   4   3   4   0   0   0)
     Any further DFT definition will be discarded
     Please, verify this is what you really want


     G-vector sticks info
     --------------------
     sticks:   dense  smooth     PW     G-vecs:    dense   smooth      PW
     Sum         859     433    139                16889     5985    1067

     Using Slab Decomposition

     Reading collected, re-writing distributed wavefunctions
     high-symmetry point:  0.0000 0.0000 0.0000   x coordinate   0.0000
     high-symmetry point: -1.0000 0.0000 0.0000   x coordinate   1.0000
     high-symmetry point: -1.0000 0.5000 0.0000   x coordinate   1.5000
     high-symmetry point: -0.7500 0.7500 0.0000   x coordinate   1.8536
     high-symmetry point:  0.0000 0.0000 0.0000   x coordinate   2.9142
     high-symmetry point: -0.5000 0.5000 0.5000   x coordinate   3.7802
     high-symmetry point: -1.0000 0.2500 0.2500   x coordinate   4.3926
     high-symmetry point: -1.0000 0.5000 0.0000   x coordinate   4.7462
     high-symmetry point: -0.5000 0.5000 0.5000   x coordinate   5.4533
     high-symmetry point: -0.7500 0.7500 0.0000   x coordinate   6.0656

     Plottable bands (eV) written to file si.gnu
     Bands written to file si

 **************************************************************************

                    xk=(   0.00000,   0.00000,   0.00000  )

     point group O_h (m-3m) 
     there are 10 classes
     the character table:

       E     8C3   3C2   6C4   6C2'  i     8S6   3s_h  6S4   6s_d 
A_1g   1.00  1.00  1.00  1.00  1.00  1.00  1.00  1.00  1.00  1.00
A_2g   1.00  1.00  1.00 -1.00 -1.00  1.00  1.00  1.00 -1.00 -1.00
E_g    2.00 -1.00  2.00  0.00  0.00  2.00 -1.00  2.00  0.00  0.00
T_1g   3.00  0.00 -1.00  1.00 -1.00  3.00  0.00 -1.00  1.00 -1.00
T_2g   3.00  0.00 -1.00 -1.00  1.00  3.00  0.00 -1.00 -1.00  1.00
A_1u   1.00  1.00  1.00  1.00  1.00 -1.00 -1.00 -1.00 -1.00 -1.00
A_2u   1.00  1.00  1.00 -1.00 -1.00 -1.00 -1.00 -1.00  1.00  1.00
E_u    2.00 -1.00  2.00  0.00  0.00 -2.00  1.00 -2.00  0.00  0.00
T_1u   3.00  0.00 -1.00  1.00 -1.00 -3.00  0.00  1.00 -1.00  1.00
T_2u   3.00  0.00 -1.00 -1.00  1.00 -3.00  0.00  1.00  1.00 -1.00

     the symmetry operations in each class and the name of the first element:

     E        1
                                                                 
     8C3     17   19   20   18   24   21   22   23
                                                                 
     3C2      2    4    3
                                                                 
     6C4      7    8   15   16   12   11
                                                                 
     6C2'     5    6   14   13   10    9
                                                                 
     i       25
                                                                 
     8S6     41   43   44   42   48   45   46   47
                                                                 
     3s_h    26   28   27
                                                                 
     6S4     31   32   39   40   36   35
                                                                 
     6s_d    29   30   38   37   34   33
                                                                 

     Band symmetry, O_h (m-3m)  point group:

     e(  1 -  1) =     -5.75935  eV     1   --> A_1g G_1   G_1+
     e(  2 -  4) =      6.20241  eV     3   --> T_2g G_25' G_5+

 **************************************************************************

 **************************************************************************

                    xk=(  -0.01667,   0.00000,   0.00000  )

     point group C_4v (4mm) 
     there are  5 classes
     the character table:

       E     2C4   C2    2s_v  2s_d 
A_1    1.00  1.00  1.00  1.00  1.00
A_2    1.00  1.00  1.00 -1.00 -1.00
B_1    1.00 -1.00  1.00  1.00 -1.00
B_2    1.00 -1.00  1.00 -1.00  1.00
E      2.00  0.00 -2.00  0.00  0.00

     the symmetry operations in each class and the name of the first element:

     E        1
                                                                 
     2C4      3    4
                                                                 
     C2       2
                                                                 
     2s_v     5    6
                                                                 
     2s_d     7    8
                                                                 

     Band symmetry, C_4v (4mm)  point group:

     e(  1 -  1) =     -5.75813  eV     1   --> A_1  G_1 D_1   
     e(  2 -  2) =      6.19396  eV     1   --> B_2  G_4 D_2'  
     e(  3 -  4) =      6.19711  eV     2   --> E    G_5 D_5   

 **************************************************************************

 **************************************************************************

                    xk=(  -0.03333,   0.00000,   0.00000  )

     Band symmetry, C_4v (4mm)  point group:

     e(  1 -  1) =     -5.75449  eV     1   --> A_1  G_1 D_1   
     e(  2 -  2) =      6.16886  eV     1   --> B_2  G_4 D_2'  
     e(  3 -  4) =      6.18127  eV     2   --> E    G_5 D_5   

 **************************************************************************

 **************************************************************************

                    xk=(  -0.05000,   0.00000,   0.00000  )

     Band symmetry, C_4v (4mm)  point group:

     e(  1 -  1) =     -5.74841  eV     1   --> A_1  G_1 D_1   
     e(  2 -  2) =      6.12788  eV     1   --> B_2  G_4 D_2'  
     e(  3 -  4) =      6.15543  eV     2   --> E    G_5 D_5   

 **************************************************************************

 **************************************************************************

                    xk=(  -0.06667,   0.00000,   0.00000  )

     Band symmetry, C_4v (4mm)  point group:

     e(  1 -  1) =     -5.73990  eV     1   --> A_1  G_1 D_1   
     e(  2 -  2) =      6.07214  eV     1   --> B_2  G_4 D_2'  
     e(  3 -  4) =      6.12037  eV     2   --> E    G_5 D_5   

 **************************************************************************

 **************************************************************************

                    xk=(  -0.08333,   0.00000,   0.00000  )

     Band symmetry, C_4v (4mm)  point group:

     e(  1 -  1) =     -5.72896  eV     1   --> A_1  G_1 D_1   
     e(  2 -  2) =      6.00303  eV     1   --> B_2  G_4 D_2'  
     e(  3 -  4) =      6.07703  eV     2   --> E    G_5 D_5   

 **************************************************************************

 **************************************************************************

                    xk=(  -0.10000,   0.00000,   0.00000  )

     Band symmetry, C_4v (4mm)  point group:

     e(  1 -  1) =     -5.71559  eV     1   --> A_1  G_1 D_1   
     e(  2 -  2) =      5.92206  eV     1   --> B_2  G_4 D_2'  
     e(  3 -  4) =      6.02645  eV     2   --> E    G_5 D_5   

 **************************************************************************

 **************************************************************************

                    xk=(  -0.11667,   0.00000,   0.00000  )

     Band symmetry, C_4v (4mm)  point group:

     e(  1 -  1) =     -5.69980  eV     1   --> A_1  G_1 D_1   
     e(  2 -  2) =      5.83072  eV     1   --> B_2  G_4 D_2'  
     e(  3 -  4) =      5.96969  eV     2   --> E    G_5 D_5   

 **************************************************************************

 **************************************************************************

                    xk=(  -0.13333,   0.00000,   0.00000  )

     Band symmetry, C_4v (4mm)  point group:

     e(  1 -  1) =     -5.68159  eV     1   --> A_1  G_1 D_1   
     e(  2 -  2) =      5.73043  eV     1   --> B_2  G_4 D_2'  
     e(  3 -  4) =      5.90774  eV     2   --> E    G_5 D_5   

 **************************************************************************

 **************************************************************************

                    xk=(  -0.15000,   0.00000,   0.00000  )

     Band symmetry, C_4v (4mm)  point group:

     e(  1 -  1) =     -5.66095  eV     1   --> A_1  G_1 D_1   
     e(  2 -  2) =      5.62247  eV     1   --> B_2  G_4 D_2'  
     e(  3 -  4) =      5.84153  eV     2   --> E    G_5 D_5   

 **************************************************************************

 **************************************************************************

                    xk=(  -0.16667,   0.00000,   0.00000  )

     Band symmetry, C_4v (4mm)  point group:

     e(  1 -  1) =     -5.63790  eV     1   --> A_1  G_1 D_1   
     e(  2 -  2) =      5.50796  eV     1   --> B_2  G_4 D_2'  
     e(  3 -  4) =      5.77190  eV     2   --> E    G_5 D_5   

 **************************************************************************

 **************************************************************************

                    xk=(  -0.18333,   0.00000,   0.00000  )

     Band symmetry, C_4v (4mm)  point group:

     e(  1 -  1) =     -5.61243  eV     1   --> A_1  G_1 D_1   
     e(  2 -  2) =      5.38793  eV     1   --> B_2  G_4 D_2'  
     e(  3 -  4) =      5.69958  eV     2   --> E    G_5 D_5   

 **************************************************************************

 **************************************************************************

                    xk=(  -0.20000,   0.00000,   0.00000  )

     Band symmetry, C_4v (4mm)  point group:

     e(  1 -  1) =     -5.58456  eV     1   --> A_1  G_1 D_1   
     e(  2 -  2) =      5.26321  eV     1   --> B_2  G_4 D_2'  
     e(  3 -  4) =      5.62521  eV     2   --> E    G_5 D_5   

 **************************************************************************

 **************************************************************************

                    xk=(  -0.21667,   0.00000,   0.00000  )

     Band symmetry, C_4v (4mm)  point group:

     e(  1 -  1) =     -5.55428  eV     1   --> A_1  G_1 D_1   
     e(  2 -  2) =      5.13451  eV     1   --> B_2  G_4 D_2'  
     e(  3 -  4) =      5.54925  eV     2   --> E    G_5 D_5   

 **************************************************************************

 **************************************************************************

                    xk=(  -0.23333,   0.00000,   0.00000  )

     Band symmetry, C_4v (4mm)  point group:

     e(  1 -  1) =     -5.52160  eV     1   --> A_1  G_1 D_1   
     e(  2 -  2) =      5.00244  eV     1   --> B_2  G_4 D_2'  
     e(  3 -  4) =      5.47235  eV     2   --> E    G_5 D_5   

 **************************************************************************

 **************************************************************************

                    xk=(  -0.25000,   0.00000,   0.00000  )

     Band symmetry, C_4v (4mm)  point group:

     e(  1 -  1) =     -5.48652  eV     1   --> A_1  G_1 D_1   
     e(  2 -  2) =      4.86752  eV     1   --> B_2  G_4 D_2'  
     e(  3 -  4) =      5.39482  eV     2   --> E    G_5 D_5   

 **************************************************************************

 **************************************************************************

                    xk=(  -0.26667,   0.00000,   0.00000  )

     Band symmetry, C_4v (4mm)  point group:

     e(  1 -  1) =     -5.44906  eV     1   --> A_1  G_1 D_1   
     e(  2 -  2) =      4.73010  eV     1   --> B_2  G_4 D_2'  
     e(  3 -  4) =      5.31700  eV     2   --> E    G_5 D_5   

 **************************************************************************

 **************************************************************************

                    xk=(  -0.28333,   0.00000,   0.00000  )

     Band symmetry, C_4v (4mm)  point group:

     e(  1 -  1) =     -5.40921  eV     1   --> A_1  G_1 D_1   
     e(  2 -  2) =      4.59068  eV     1   --> B_2  G_4 D_2'  
     e(  3 -  4) =      5.23921  eV     2   --> E    G_5 D_5   

 **************************************************************************

 **************************************************************************

                    xk=(  -0.30000,   0.00000,   0.00000  )

     Band symmetry, C_4v (4mm)  point group:

     e(  1 -  1) =     -5.36698  eV     1   --> A_1  G_1 D_1   
     e(  2 -  2) =      4.44949  eV     1   --> B_2  G_4 D_2'  
     e(  3 -  4) =      5.16170  eV     2   --> E    G_5 D_5   

 **************************************************************************

 **************************************************************************

                    xk=(  -0.31667,   0.00000,   0.00000  )

     Band symmetry, C_4v (4mm)  point group:

     e(  1 -  1) =     -5.32238  eV     1   --> A_1  G_1 D_1   
     e(  2 -  2) =      4.30676  eV     1   --> B_2  G_4 D_2'  
     e(  3 -  4) =      5.08461  eV     2   --> E    G_5 D_5   

 **************************************************************************

 **************************************************************************

                    xk=(  -0.33333,   0.00000,   0.00000  )

     Band symmetry, C_4v (4mm)  point group:

     e(  1 -  1) =     -5.27542  eV     1   --> A_1  G_1 D_1   
     e(  2 -  2) =      4.16281  eV     1   --> B_2  G_4 D_2'  
     e(  3 -  4) =      5.00829  eV     2   --> E    G_5 D_5   

 **************************************************************************

 **************************************************************************

                    xk=(  -0.35000,   0.00000,   0.00000  )

     Band symmetry, C_4v (4mm)  point group:

     e(  1 -  1) =     -5.22610  eV     1   --> A_1  G_1 D_1   
     e(  2 -  2) =      4.01774  eV     1   --> B_2  G_4 D_2'  
     e(  3 -  4) =      4.93282  eV     2   --> E    G_5 D_5   

 **************************************************************************

 **************************************************************************

                    xk=(  -0.36667,   0.00000,   0.00000  )

     Band symmetry, C_4v (4mm)  point group:

     e(  1 -  1) =     -5.17443  eV     1   --> A_1  G_1 D_1   
     e(  2 -  2) =      3.87174  eV     1   --> B_2  G_4 D_2'  
     e(  3 -  4) =      4.85836  eV     2   --> E    G_5 D_5   

 **************************************************************************

 **************************************************************************

                    xk=(  -0.38333,   0.00000,   0.00000  )

     Band symmetry, C_4v (4mm)  point group:

     e(  1 -  1) =     -5.12043  eV     1   --> A_1  G_1 D_1   
     e(  2 -  2) =      3.72494  eV     1   --> B_2  G_4 D_2'  
     e(  3 -  4) =      4.78502  eV     2   --> E    G_5 D_5   

 **************************************************************************

 **************************************************************************

                    xk=(  -0.40000,   0.00000,   0.00000  )

     Band symmetry, C_4v (4mm)  point group:

     e(  1 -  1) =     -5.06410  eV     1   --> A_1  G_1 D_1   
     e(  2 -  2) =      3.57746  eV     1   --> B_2  G_4 D_2'  
     e(  3 -  4) =      4.71292  eV     2   --> E    G_5 D_5   

 **************************************************************************

 **************************************************************************

                    xk=(  -0.41667,   0.00000,   0.00000  )

     Band symmetry, C_4v (4mm)  point group:

     e(  1 -  1) =     -5.00545  eV     1   --> A_1  G_1 D_1   
     e(  2 -  2) =      3.42941  eV     1   --> B_2  G_4 D_2'  
     e(  3 -  4) =      4.64216  eV     2   --> E    G_5 D_5   

 **************************************************************************

 **************************************************************************

                    xk=(  -0.43333,   0.00000,   0.00000  )

     Band symmetry, C_4v (4mm)  point group:

     e(  1 -  1) =     -4.94449  eV     1   --> A_1  G_1 D_1   
     e(  2 -  2) =      3.28089  eV     1   --> B_2  G_4 D_2'  
     e(  3 -  4) =      4.57281  eV     2   --> E    G_5 D_5   

 **************************************************************************

 **************************************************************************

                    xk=(  -0.45000,   0.00000,   0.00000  )

     Band symmetry, C_4v (4mm)  point group:

     e(  1 -  1) =     -4.88123  eV     1   --> A_1  G_1 D_1   
     e(  2 -  2) =      3.13197  eV     1   --> B_2  G_4 D_2'  
     e(  3 -  4) =      4.50497  eV     2   --> E    G_5 D_5   

 **************************************************************************

 **************************************************************************

                    xk=(  -0.46667,   0.00000,   0.00000  )

     Band symmetry, C_4v (4mm)  point group:

     e(  1 -  1) =     -4.81568  eV     1   --> A_1  G_1 D_1   
     e(  2 -  2) =      2.98273  eV     1   --> B_2  G_4 D_2'  
     e(  3 -  4) =      4.43870  eV     2   --> E    G_5 D_5   

 **************************************************************************

 **************************************************************************

                    xk=(  -0.48333,   0.00000,   0.00000  )

     Band symmetry, C_4v (4mm)  point group:

     e(  1 -  1) =     -4.74786  eV     1   --> A_1  G_1 D_1   
     e(  2 -  2) =      2.83326  eV     1   --> B_2  G_4 D_2'  
     e(  3 -  4) =      4.37406  eV     2   --> E    G_5 D_5   

 **************************************************************************

 **************************************************************************

                    xk=(  -0.50000,   0.00000,   0.00000  )

     Band symmetry, C_4v (4mm)  point group:

     e(  1 -  1) =     -4.67777  eV     1   --> A_1  G_1 D_1   
     e(  2 -  2) =      2.68360  eV     1   --> B_2  G_4 D_2'  
     e(  3 -  4) =      4.31111  eV     2   --> E    G_5 D_5   

 **************************************************************************

 **************************************************************************

                    xk=(  -0.51667,   0.00000,   0.00000  )

     Band symmetry, C_4v (4mm)  point group:

     e(  1 -  1) =     -4.60544  eV     1   --> A_1  G_1 D_1   
     e(  2 -  2) =      2.53381  eV     1   --> B_2  G_4 D_2'  
     e(  3 -  4) =      4.24989  eV     2   --> E    G_5 D_5   

 **************************************************************************

 **************************************************************************

                    xk=(  -0.53333,   0.00000,   0.00000  )

     Band symmetry, C_4v (4mm)  point group:

     e(  1 -  1) =     -4.53087  eV     1   --> A_1  G_1 D_1   
     e(  2 -  2) =      2.38396  eV     1   --> B_2  G_4 D_2'  
     e(  3 -  4) =      4.19042  eV     2   --> E    G_5 D_5   

 **************************************************************************

 **************************************************************************

                    xk=(  -0.55000,   0.00000,   0.00000  )

     Band symmetry, C_4v (4mm)  point group:

     e(  1 -  1) =     -4.45408  eV     1   --> A_1  G_1 D_1   
     e(  2 -  2) =      2.23408  eV     1   --> B_2  G_4 D_2'  
     e(  3 -  4) =      4.13275  eV     2   --> E    G_5 D_5   

 **************************************************************************

 **************************************************************************

                    xk=(  -0.56667,   0.00000,   0.00000  )

     Band symmetry, C_4v (4mm)  point group:

     e(  1 -  1) =     -4.37509  eV     1   --> A_1  G_1 D_1   
     e(  2 -  2) =      2.08428  eV     1   --> B_2  G_4 D_2'  
     e(  3 -  4) =      4.07699  eV     2   --> E    G_5 D_5   

 **************************************************************************

 **************************************************************************

                    xk=(  -0.58333,   0.00000,   0.00000  )

     Band symmetry, C_4v (4mm)  point group:

     e(  1 -  1) =     -4.29390  eV     1   --> A_1  G_1 D_1   
     e(  2 -  2) =      1.93459  eV     1   --> B_2  G_4 D_2'  
     e(  3 -  4) =      4.02313  eV     2   --> E    G_5 D_5   

 **************************************************************************

 **************************************************************************

                    xk=(  -0.60000,   0.00000,   0.00000  )

     Band symmetry, C_4v (4mm)  point group:

     e(  1 -  1) =     -4.21054  eV     1   --> A_1  G_1 D_1   
     e(  2 -  2) =      1.78506  eV     1   --> B_2  G_4 D_2'  
     e(  3 -  4) =      3.97119  eV     2   --> E    G_5 D_5   

 **************************************************************************

 **************************************************************************

                    xk=(  -0.61667,   0.00000,   0.00000  )

     Band symmetry, C_4v (4mm)  point group:

     e(  1 -  1) =     -4.12503  eV     1   --> A_1  G_1 D_1   
     e(  2 -  2) =      1.63574  eV     1   --> B_2  G_4 D_2'  
     e(  3 -  4) =      3.92120  eV     2   --> E    G_5 D_5   

 **************************************************************************

 **************************************************************************

                    xk=(  -0.63333,   0.00000,   0.00000  )

     Band symmetry, C_4v (4mm)  point group:

     e(  1 -  1) =     -4.03738  eV     1   --> A_1  G_1 D_1   
     e(  2 -  2) =      1.48666  eV     1   --> B_2  G_4 D_2'  
     e(  3 -  4) =      3.87318  eV     2   --> E    G_5 D_5   

 **************************************************************************

 **************************************************************************

                    xk=(  -0.65000,   0.00000,   0.00000  )

     Band symmetry, C_4v (4mm)  point group:

     e(  1 -  1) =     -3.94760  eV     1   --> A_1  G_1 D_1   
     e(  2 -  2) =      1.33792  eV     1   --> B_2  G_4 D_2'  
     e(  3 -  4) =      3.82717  eV     2   --> E    G_5 D_5   

 **************************************************************************

 **************************************************************************

                    xk=(  -0.66667,   0.00000,   0.00000  )

     Band symmetry, C_4v (4mm)  point group:

     e(  1 -  1) =     -3.85573  eV     1   --> A_1  G_1 D_1   
     e(  2 -  2) =      1.18956  eV     1   --> B_2  G_4 D_2'  
     e(  3 -  4) =      3.78318  eV     2   --> E    G_5 D_5   

 **************************************************************************

 **************************************************************************

                    xk=(  -0.68333,   0.00000,   0.00000  )

     Band symmetry, C_4v (4mm)  point group:

     e(  1 -  1) =     -3.76179  eV     1   --> A_1  G_1 D_1   
     e(  2 -  2) =      1.04163  eV     1   --> B_2  G_4 D_2'  
     e(  3 -  4) =      3.74123  eV     2   --> E    G_5 D_5   

 **************************************************************************

 **************************************************************************

                    xk=(  -0.70000,   0.00000,   0.00000  )

     Band symmetry, C_4v (4mm)  point group:

     e(  1 -  1) =     -3.66578  eV     1   --> A_1  G_1 D_1   
     e(  2 -  2) =      0.89418  eV     1   --> B_2  G_4 D_2'  
     e(  3 -  4) =      3.70134  eV     2   --> E    G_5 D_5   

 **************************************************************************

 **************************************************************************

                    xk=(  -0.71667,   0.00000,   0.00000  )

     Band symmetry, C_4v (4mm)  point group:

     e(  1 -  1) =     -3.56774  eV     1   --> A_1  G_1 D_1   
     e(  2 -  2) =      0.74726  eV     1   --> B_2  G_4 D_2'  
     e(  3 -  4) =      3.66348  eV     2   --> E    G_5 D_5   

 **************************************************************************

 **************************************************************************

                    xk=(  -0.73333,   0.00000,   0.00000  )

     Band symmetry, C_4v (4mm)  point group:

     e(  1 -  1) =     -3.46769  eV     1   --> A_1  G_1 D_1   
     e(  2 -  2) =      0.60094  eV     1   --> B_2  G_4 D_2'  
     e(  3 -  4) =      3.62775  eV     2   --> E    G_5 D_5   

 **************************************************************************

 **************************************************************************

                    xk=(  -0.75000,   0.00000,   0.00000  )

     Band symmetry, C_4v (4mm)  point group:

     e(  1 -  1) =     -3.36565  eV     1   --> A_1  G_1 D_1   
     e(  2 -  2) =      0.45526  eV     1   --> B_2  G_4 D_2'  
     e(  3 -  4) =      3.59413  eV     2   --> E    G_5 D_5   

 **************************************************************************

 **************************************************************************

                    xk=(  -0.76667,   0.00000,   0.00000  )

     Band symmetry, C_4v (4mm)  point group:

     e(  1 -  1) =     -3.26164  eV     1   --> A_1  G_1 D_1   
     e(  2 -  2) =      0.31029  eV     1   --> B_2  G_4 D_2'  
     e(  3 -  4) =      3.56263  eV     2   --> E    G_5 D_5   

 **************************************************************************

 **************************************************************************

                    xk=(  -0.78333,   0.00000,   0.00000  )

     Band symmetry, C_4v (4mm)  point group:

     e(  1 -  1) =     -3.15570  eV     1   --> A_1  G_1 D_1   
     e(  2 -  2) =      0.16607  eV     1   --> B_2  G_4 D_2'  
     e(  3 -  4) =      3.53325  eV     2   --> E    G_5 D_5   

 **************************************************************************

 **************************************************************************

                    xk=(  -0.80000,   0.00000,   0.00000  )

     Band symmetry, C_4v (4mm)  point group:

     e(  1 -  1) =     -3.04786  eV     1   --> A_1  G_1 D_1   
     e(  2 -  2) =      0.02266  eV     1   --> B_2  G_4 D_2'  
     e(  3 -  4) =      3.50601  eV     2   --> E    G_5 D_5   

 **************************************************************************

 **************************************************************************

                    xk=(  -0.81667,   0.00000,   0.00000  )

     Band symmetry, C_4v (4mm)  point group:

     e(  1 -  1) =     -2.93813  eV     1   --> A_1  G_1 D_1   
     e(  2 -  2) =     -0.11989  eV     1   --> B_2  G_4 D_2'  
     e(  3 -  4) =      3.48091  eV     2   --> E    G_5 D_5   

 **************************************************************************

 **************************************************************************

                    xk=(  -0.83333,   0.00000,   0.00000  )

     Band symmetry, C_4v (4mm)  point group:

     e(  1 -  1) =     -2.82655  eV     1   --> A_1  G_1 D_1   
     e(  2 -  2) =     -0.26152  eV     1   --> B_2  G_4 D_2'  
     e(  3 -  4) =      3.45797  eV     2   --> E    G_5 D_5   

 **************************************************************************

 **************************************************************************

                    xk=(  -0.85000,   0.00000,   0.00000  )

     Band symmetry, C_4v (4mm)  point group:

     e(  1 -  1) =     -2.71314  eV     1   --> A_1  G_1 D_1   
     e(  2 -  2) =     -0.40218  eV     1   --> B_2  G_4 D_2'  
     e(  3 -  4) =      3.43721  eV     2   --> E    G_5 D_5   

 **************************************************************************

 **************************************************************************

                    xk=(  -0.86667,   0.00000,   0.00000  )

     Band symmetry, C_4v (4mm)  point group:

     e(  1 -  1) =     -2.59795  eV     1   --> A_1  G_1 D_1   
     e(  2 -  2) =     -0.54182  eV     1   --> B_2  G_4 D_2'  
     e(  3 -  4) =      3.41860  eV     2   --> E    G_5 D_5   

 **************************************************************************

 **************************************************************************

                    xk=(  -0.88333,   0.00000,   0.00000  )

     Band symmetry, C_4v (4mm)  point group:

     e(  1 -  1) =     -2.48099  eV     1   --> A_1  G_1 D_1   
     e(  2 -  2) =     -0.68038  eV     1   --> B_2  G_4 D_2'  
     e(  3 -  4) =      3.40218  eV     2   --> E    G_5 D_5   

 **************************************************************************

 **************************************************************************

                    xk=(  -0.90000,   0.00000,   0.00000  )

     Band symmetry, C_4v (4mm)  point group:

     e(  1 -  1) =     -2.36231  eV     1   --> A_1  G_1 D_1   
     e(  2 -  2) =     -0.81783  eV     1   --> B_2  G_4 D_2'  
     e(  3 -  4) =      3.38793  eV     2   --> E    G_5 D_5   

 **************************************************************************

 **************************************************************************

                    xk=(  -0.91667,   0.00000,   0.00000  )

     Band symmetry, C_4v (4mm)  point group:

     e(  1 -  1) =     -2.24195  eV     1   --> A_1  G_1 D_1   
     e(  2 -  2) =     -0.95409  eV     1   --> B_2  G_4 D_2'  
     e(  3 -  4) =      3.37586  eV     2   --> E    G_5 D_5   

 **************************************************************************

 **************************************************************************

                    xk=(  -0.93333,   0.00000,   0.00000  )

     Band symmetry, C_4v (4mm)  point group:

     e(  1 -  1) =     -2.11994  eV     1   --> A_1  G_1 D_1   
     e(  2 -  2) =     -1.08914  eV     1   --> B_2  G_4 D_2'  
     e(  3 -  4) =      3.36599  eV     2   --> E    G_5 D_5   

 **************************************************************************

 **************************************************************************

                    xk=(  -0.95000,   0.00000,   0.00000  )

     Band symmetry, C_4v (4mm)  point group:

     e(  1 -  1) =     -1.99631  eV     1   --> A_1  G_1 D_1   
     e(  2 -  2) =     -1.22291  eV     1   --> B_2  G_4 D_2'  
     e(  3 -  4) =      3.35831  eV     2   --> E    G_5 D_5   

 **************************************************************************

 **************************************************************************

                    xk=(  -0.96667,   0.00000,   0.00000  )

     Band symmetry, C_4v (4mm)  point group:

     e(  1 -  1) =     -1.87111  eV     1   --> A_1  G_1 D_1   
     e(  2 -  2) =     -1.35537  eV     1   --> B_2  G_4 D_2'  
     e(  3 -  4) =      3.35282  eV     2   --> E    G_5 D_5   

 **************************************************************************

 **************************************************************************

                    xk=(  -0.98333,   0.00000,   0.00000  )

     Band symmetry, C_4v (4mm)  point group:

     e(  1 -  1) =     -1.74437  eV     1   --> A_1  G_1 D_1   
     e(  2 -  2) =     -1.48646  eV     1   --> B_2  G_4 D_2'  
     e(  3 -  4) =      3.34952  eV     2   --> E    G_5 D_5   

 **************************************************************************

 **************************************************************************

                    xk=(  -1.00000,   0.00000,   0.00000  )

     zone border point and non-symmorphic group 
     symmetry decomposition not available

 **************************************************************************

 **************************************************************************

                    xk=(  -1.00000,   0.00833,   0.00000  )

     zone border point and non-symmorphic group 
     symmetry decomposition not available

 **************************************************************************

 **************************************************************************

                    xk=(  -1.00000,   0.01667,   0.00000  )

     zone border point and non-symmorphic group 
     symmetry decomposition not available

 **************************************************************************

 **************************************************************************

                    xk=(  -1.00000,   0.02500,   0.00000  )

     zone border point and non-symmorphic group 
     symmetry decomposition not available

 **************************************************************************

 **************************************************************************

                    xk=(  -1.00000,   0.03333,   0.00000  )

     zone border point and non-symmorphic group 
     symmetry decomposition not available

 **************************************************************************

 **************************************************************************

                    xk=(  -1.00000,   0.04167,   0.00000  )

     zone border point and non-symmorphic group 
     symmetry decomposition not available

 **************************************************************************

 **************************************************************************

                    xk=(  -1.00000,   0.05000,   0.00000  )

     zone border point and non-symmorphic group 
     symmetry decomposition not available

 **************************************************************************

 **************************************************************************

                    xk=(  -1.00000,   0.05833,   0.00000  )

     zone border point and non-symmorphic group 
     symmetry decomposition not available

 **************************************************************************

 **************************************************************************

                    xk=(  -1.00000,   0.06667,   0.00000  )

     zone border point and non-symmorphic group 
     symmetry decomposition not available

 **************************************************************************

 **************************************************************************

                    xk=(  -1.00000,   0.07500,   0.00000  )

     zone border point and non-symmorphic group 
     symmetry decomposition not available

 **************************************************************************

 **************************************************************************

                    xk=(  -1.00000,   0.08333,   0.00000  )

     zone border point and non-symmorphic group 
     symmetry decomposition not available

 **************************************************************************

 **************************************************************************

                    xk=(  -1.00000,   0.09167,   0.00000  )

     zone border point and non-symmorphic group 
     symmetry decomposition not available

 **************************************************************************

 **************************************************************************

                    xk=(  -1.00000,   0.10000,   0.00000  )

     zone border point and non-symmorphic group 
     symmetry decomposition not available

 **************************************************************************

 **************************************************************************

                    xk=(  -1.00000,   0.10833,   0.00000  )

     zone border point and non-symmorphic group 
     symmetry decomposition not available

 **************************************************************************

 **************************************************************************

                    xk=(  -1.00000,   0.11667,   0.00000  )

     zone border point and non-symmorphic group 
     symmetry decomposition not available

 **************************************************************************

 **************************************************************************

                    xk=(  -1.00000,   0.12500,   0.00000  )

     zone border point and non-symmorphic group 
     symmetry decomposition not available

 **************************************************************************

 **************************************************************************

                    xk=(  -1.00000,   0.13333,   0.00000  )

     zone border point and non-symmorphic group 
     symmetry decomposition not available

 **************************************************************************

 **************************************************************************

                    xk=(  -1.00000,   0.14167,   0.00000  )

     zone border point and non-symmorphic group 
     symmetry decomposition not available

 **************************************************************************

 **************************************************************************

                    xk=(  -1.00000,   0.15000,   0.00000  )

     zone border point and non-symmorphic group 
     symmetry decomposition not available

 **************************************************************************

 **************************************************************************

                    xk=(  -1.00000,   0.15833,   0.00000  )

     zone border point and non-symmorphic group 
     symmetry decomposition not available

 **************************************************************************

 **************************************************************************

                    xk=(  -1.00000,   0.16667,   0.00000  )

     zone border point and non-symmorphic group 
     symmetry decomposition not available

 **************************************************************************

 **************************************************************************

                    xk=(  -1.00000,   0.17500,   0.00000  )

     zone border point and non-symmorphic group 
     symmetry decomposition not available

 **************************************************************************

 **************************************************************************

                    xk=(  -1.00000,   0.18333,   0.00000  )

     zone border point and non-symmorphic group 
     symmetry decomposition not available

 **************************************************************************

 **************************************************************************

                    xk=(  -1.00000,   0.19167,   0.00000  )

     zone border point and non-symmorphic group 
     symmetry decomposition not available

 **************************************************************************

 **************************************************************************

                    xk=(  -1.00000,   0.20000,   0.00000  )

     zone border point and non-symmorphic group 
     symmetry decomposition not available

 **************************************************************************

 **************************************************************************

                    xk=(  -1.00000,   0.20833,   0.00000  )

     zone border point and non-symmorphic group 
     symmetry decomposition not available

 **************************************************************************

 **************************************************************************

                    xk=(  -1.00000,   0.21667,   0.00000  )

     zone border point and non-symmorphic group 
     symmetry decomposition not available

 **************************************************************************

 **************************************************************************

                    xk=(  -1.00000,   0.22500,   0.00000  )

     zone border point and non-symmorphic group 
     symmetry decomposition not available

 **************************************************************************

 **************************************************************************

                    xk=(  -1.00000,   0.23333,   0.00000  )

     zone border point and non-symmorphic group 
     symmetry decomposition not available

 **************************************************************************

 **************************************************************************

                    xk=(  -1.00000,   0.24167,   0.00000  )

     zone border point and non-symmorphic group 
     symmetry decomposition not available

 **************************************************************************

 **************************************************************************

                    xk=(  -1.00000,   0.25000,   0.00000  )

     zone border point and non-symmorphic group 
     symmetry decomposition not available

 **************************************************************************

 **************************************************************************

                    xk=(  -1.00000,   0.25833,   0.00000  )

     zone border point and non-symmorphic group 
     symmetry decomposition not available

 **************************************************************************

 **************************************************************************

                    xk=(  -1.00000,   0.26667,   0.00000  )

     zone border point and non-symmorphic group 
     symmetry decomposition not available

 **************************************************************************

 **************************************************************************

                    xk=(  -1.00000,   0.27500,   0.00000  )

     zone border point and non-symmorphic group 
     symmetry decomposition not available

 **************************************************************************

 **************************************************************************

                    xk=(  -1.00000,   0.28333,   0.00000  )

     zone border point and non-symmorphic group 
     symmetry decomposition not available

 **************************************************************************

 **************************************************************************

                    xk=(  -1.00000,   0.29167,   0.00000  )

     zone border point and non-symmorphic group 
     symmetry decomposition not available

 **************************************************************************

 **************************************************************************

                    xk=(  -1.00000,   0.30000,   0.00000  )

     zone border point and non-symmorphic group 
     symmetry decomposition not available

 **************************************************************************

 **************************************************************************

                    xk=(  -1.00000,   0.30833,   0.00000  )

     zone border point and non-symmorphic group 
     symmetry decomposition not available

 **************************************************************************

 **************************************************************************

                    xk=(  -1.00000,   0.31667,   0.00000  )

     zone border point and non-symmorphic group 
     symmetry decomposition not available

 **************************************************************************

 **************************************************************************

                    xk=(  -1.00000,   0.32500,   0.00000  )

     zone border point and non-symmorphic group 
     symmetry decomposition not available

 **************************************************************************

 **************************************************************************

                    xk=(  -1.00000,   0.33333,   0.00000  )

     zone border point and non-symmorphic group 
     symmetry decomposition not available

 **************************************************************************

 **************************************************************************

                    xk=(  -1.00000,   0.34167,   0.00000  )

     zone border point and non-symmorphic group 
     symmetry decomposition not available

 **************************************************************************

 **************************************************************************

                    xk=(  -1.00000,   0.35000,   0.00000  )

     zone border point and non-symmorphic group 
     symmetry decomposition not available

 **************************************************************************

 **************************************************************************

                    xk=(  -1.00000,   0.35833,   0.00000  )

     zone border point and non-symmorphic group 
     symmetry decomposition not available

 **************************************************************************

 **************************************************************************

                    xk=(  -1.00000,   0.36667,   0.00000  )

     zone border point and non-symmorphic group 
     symmetry decomposition not available

 **************************************************************************

 **************************************************************************

                    xk=(  -1.00000,   0.37500,   0.00000  )

     zone border point and non-symmorphic group 
     symmetry decomposition not available

 **************************************************************************

 **************************************************************************

                    xk=(  -1.00000,   0.38333,   0.00000  )

     zone border point and non-symmorphic group 
     symmetry decomposition not available

 **************************************************************************

 **************************************************************************

                    xk=(  -1.00000,   0.39167,   0.00000  )

     zone border point and non-symmorphic group 
     symmetry decomposition not available

 **************************************************************************

 **************************************************************************

                    xk=(  -1.00000,   0.40000,   0.00000  )

     zone border point and non-symmorphic group 
     symmetry decomposition not available

 **************************************************************************

 **************************************************************************

                    xk=(  -1.00000,   0.40833,   0.00000  )

     zone border point and non-symmorphic group 
     symmetry decomposition not available

 **************************************************************************

 **************************************************************************

                    xk=(  -1.00000,   0.41667,   0.00000  )

     zone border point and non-symmorphic group 
     symmetry decomposition not available

 **************************************************************************

 **************************************************************************

                    xk=(  -1.00000,   0.42500,   0.00000  )

     zone border point and non-symmorphic group 
     symmetry decomposition not available

 **************************************************************************

 **************************************************************************

                    xk=(  -1.00000,   0.43333,   0.00000  )

     zone border point and non-symmorphic group 
     symmetry decomposition not available

 **************************************************************************

 **************************************************************************

                    xk=(  -1.00000,   0.44167,   0.00000  )

     zone border point and non-symmorphic group 
     symmetry decomposition not available

 **************************************************************************

 **************************************************************************

                    xk=(  -1.00000,   0.45000,   0.00000  )

     zone border point and non-symmorphic group 
     symmetry decomposition not available

 **************************************************************************

 **************************************************************************

                    xk=(  -1.00000,   0.45833,   0.00000  )

     zone border point and non-symmorphic group 
     symmetry decomposition not available

 **************************************************************************

 **************************************************************************

                    xk=(  -1.00000,   0.46667,   0.00000  )

     zone border point and non-symmorphic group 
     symmetry decomposition not available

 **************************************************************************

 **************************************************************************

                    xk=(  -1.00000,   0.47500,   0.00000  )

     zone border point and non-symmorphic group 
     symmetry decomposition not available

 **************************************************************************

 **************************************************************************

                    xk=(  -1.00000,   0.48333,   0.00000  )

     zone border point and non-symmorphic group 
     symmetry decomposition not available

 **************************************************************************

 **************************************************************************

                    xk=(  -1.00000,   0.49167,   0.00000  )

     zone border point and non-symmorphic group 
     symmetry decomposition not available

 **************************************************************************

 **************************************************************************

                    xk=(  -1.00000,   0.50000,   0.00000  )

     zone border point and non-symmorphic group 
     symmetry decomposition not available

 **************************************************************************

 **************************************************************************

                    xk=(  -0.99583,   0.50417,   0.00000  )

     point group C_s (m)    
     there are  2 classes
     the character table:

       E     s    
A'     1.00  1.00
A''    1.00 -1.00

     the symmetry operations in each class and the name of the first element:

     E        1
                                                                 
     s        2
                                                                 

     Band symmetry, C_s (m)     point group:

     e(  1 -  1) =     -1.47125  eV     1   --> A'             
     e(  2 -  2) =     -1.43337  eV     1   --> A''            
     e(  3 -  3) =      2.33403  eV     1   --> A'             
     e(  4 -  4) =      2.36320  eV     1   --> A''            

 **************************************************************************

 **************************************************************************

                    xk=(  -0.99167,   0.50833,   0.00000  )

     Band symmetry, C_s (m)     point group:

     e(  1 -  1) =     -1.48993  eV     1   --> A'             
     e(  2 -  2) =     -1.41501  eV     1   --> A''            
     e(  3 -  3) =      2.31991  eV     1   --> A'             
     e(  4 -  4) =      2.37895  eV     1   --> A''            

 **************************************************************************

 **************************************************************************

                    xk=(  -0.98750,   0.51250,   0.00000  )

     Band symmetry, C_s (m)     point group:

     e(  1 -  1) =     -1.50830  eV     1   --> A'             
     e(  2 -  2) =     -1.39716  eV     1   --> A''            
     e(  3 -  3) =      2.30600  eV     1   --> A'             
     e(  4 -  4) =      2.39557  eV     1   --> A''            

 **************************************************************************

 **************************************************************************

                    xk=(  -0.98333,   0.51667,   0.00000  )

     Band symmetry, C_s (m)     point group:

     e(  1 -  1) =     -1.52636  eV     1   --> A'             
     e(  2 -  2) =     -1.37985  eV     1   --> A''            
     e(  3 -  3) =      2.29230  eV     1   --> A'             
     e(  4 -  4) =      2.41307  eV     1   --> A''            

 **************************************************************************

 **************************************************************************

                    xk=(  -0.97917,   0.52083,   0.00000  )

     Band symmetry, C_s (m)     point group:

     e(  1 -  1) =     -1.54410  eV     1   --> A'             
     e(  2 -  2) =     -1.36306  eV     1   --> A''            
     e(  3 -  3) =      2.27881  eV     1   --> A'             
     e(  4 -  4) =      2.43143  eV     1   --> A''            

 **************************************************************************

 **************************************************************************

                    xk=(  -0.97500,   0.52500,   0.00000  )

     Band symmetry, C_s (m)     point group:

     e(  1 -  1) =     -1.56153  eV     1   --> A'             
     e(  2 -  2) =     -1.34679  eV     1   --> A''            
     e(  3 -  3) =      2.26553  eV     1   --> A'             
     e(  4 -  4) =      2.45064  eV     1   --> A''            

 **************************************************************************

 **************************************************************************

                    xk=(  -0.97083,   0.52917,   0.00000  )

     Band symmetry, C_s (m)     point group:

     e(  1 -  1) =     -1.57864  eV     1   --> A'             
     e(  2 -  2) =     -1.33105  eV     1   --> A''            
     e(  3 -  3) =      2.25246  eV     1   --> A'             
     e(  4 -  4) =      2.47069  eV     1   --> A''            

 **************************************************************************

 **************************************************************************

                    xk=(  -0.96667,   0.53333,   0.00000  )

     Band symmetry, C_s (m)     point group:

     e(  1 -  1) =     -1.59544  eV     1   --> A'             
     e(  2 -  2) =     -1.31582  eV     1   --> A''            
     e(  3 -  3) =      2.23960  eV     1   --> A'             
     e(  4 -  4) =      2.49156  eV     1   --> A''            

 **************************************************************************

 **************************************************************************

                    xk=(  -0.96250,   0.53750,   0.00000  )

     Band symmetry, C_s (m)     point group:

     e(  1 -  1) =     -1.61192  eV     1   --> A'             
     e(  2 -  2) =     -1.30111  eV     1   --> A''            
     e(  3 -  3) =      2.22697  eV     1   --> A'             
     e(  4 -  4) =      2.51324  eV     1   --> A''            

 **************************************************************************

 **************************************************************************

                    xk=(  -0.95833,   0.54167,   0.00000  )

     Band symmetry, C_s (m)     point group:

     e(  1 -  1) =     -1.62809  eV     1   --> A'             
     e(  2 -  2) =     -1.28690  eV     1   --> A''            
     e(  3 -  3) =      2.21455  eV     1   --> A'             
     e(  4 -  4) =      2.53571  eV     1   --> A''            

 **************************************************************************

 **************************************************************************

                    xk=(  -0.95417,   0.54583,   0.00000  )

     Band symmetry, C_s (m)     point group:

     e(  1 -  1) =     -1.64394  eV     1   --> A'             
     e(  2 -  2) =     -1.27321  eV     1   --> A''            
     e(  3 -  3) =      2.20235  eV     1   --> A'             
     e(  4 -  4) =      2.55896  eV     1   --> A''            

 **************************************************************************

 **************************************************************************

                    xk=(  -0.95000,   0.55000,   0.00000  )

     Band symmetry, C_s (m)     point group:

     e(  1 -  1) =     -1.65948  eV     1   --> A'             
     e(  2 -  2) =     -1.26001  eV     1   --> A''            
     e(  3 -  3) =      2.19037  eV     1   --> A'             
     e(  4 -  4) =      2.58296  eV     1   --> A''            

 **************************************************************************

 **************************************************************************

                    xk=(  -0.94583,   0.55417,   0.00000  )

     Band symmetry, C_s (m)     point group:

     e(  1 -  1) =     -1.67470  eV     1   --> A'             
     e(  2 -  2) =     -1.24730  eV     1   --> A''            
     e(  3 -  3) =      2.17862  eV     1   --> A'             
     e(  4 -  4) =      2.60770  eV     1   --> A''            

 **************************************************************************

 **************************************************************************

                    xk=(  -0.94167,   0.55833,   0.00000  )

     Band symmetry, C_s (m)     point group:

     e(  1 -  1) =     -1.68961  eV     1   --> A'             
     e(  2 -  2) =     -1.23508  eV     1   --> A''            
     e(  3 -  3) =      2.16709  eV     1   --> A'             
     e(  4 -  4) =      2.63313  eV     1   --> A''            

 **************************************************************************

 **************************************************************************

                    xk=(  -0.93750,   0.56250,   0.00000  )

     Band symmetry, C_s (m)     point group:

     e(  1 -  1) =     -1.70420  eV     1   --> A'             
     e(  2 -  2) =     -1.22333  eV     1   --> A''            
     e(  3 -  3) =      2.15578  eV     1   --> A'             
     e(  4 -  4) =      2.65925  eV     1   --> A''            

 **************************************************************************

 **************************************************************************

                    xk=(  -0.93333,   0.56667,   0.00000  )

     Band symmetry, C_s (m)     point group:

     e(  1 -  1) =     -1.71847  eV     1   --> A'             
     e(  2 -  2) =     -1.21206  eV     1   --> A''            
     e(  3 -  3) =      2.14471  eV     1   --> A'             
     e(  4 -  4) =      2.68603  eV     1   --> A''            

 **************************************************************************

 **************************************************************************

                    xk=(  -0.92917,   0.57083,   0.00000  )

     Band symmetry, C_s (m)     point group:

     e(  1 -  1) =     -1.73243  eV     1   --> A'             
     e(  2 -  2) =     -1.20124  eV     1   --> A''            
     e(  3 -  3) =      2.13387  eV     1   --> A'             
     e(  4 -  4) =      2.71345  eV     1   --> A''            

 **************************************************************************

 **************************************************************************

                    xk=(  -0.92500,   0.57500,   0.00000  )

     Band symmetry, C_s (m)     point group:

     e(  1 -  1) =     -1.74606  eV     1   --> A'             
     e(  2 -  2) =     -1.19086  eV     1   --> A''            
     e(  3 -  3) =      2.12325  eV     1   --> A'             
     e(  4 -  4) =      2.74147  eV     1   --> A''            

 **************************************************************************

 **************************************************************************

                    xk=(  -0.92083,   0.57917,   0.00000  )

     Band symmetry, C_s (m)     point group:

     e(  1 -  1) =     -1.75938  eV     1   --> A'             
     e(  2 -  2) =     -1.18093  eV     1   --> A''            
     e(  3 -  3) =      2.11287  eV     1   --> A'             
     e(  4 -  4) =      2.77005  eV     1   --> A''            

 **************************************************************************

 **************************************************************************

                    xk=(  -0.91667,   0.58333,   0.00000  )

     Band symmetry, C_s (m)     point group:

     e(  1 -  1) =     -1.77238  eV     1   --> A'             
     e(  2 -  2) =     -1.17143  eV     1   --> A''            
     e(  3 -  3) =      2.10273  eV     1   --> A'             
     e(  4 -  4) =      2.79917  eV     1   --> A''            

 **************************************************************************

 **************************************************************************

                    xk=(  -0.91250,   0.58750,   0.00000  )

     Band symmetry, C_s (m)     point group:

     e(  1 -  1) =     -1.78507  eV     1   --> A'             
     e(  2 -  2) =     -1.16234  eV     1   --> A''            
     e(  3 -  3) =      2.09281  eV     1   --> A'             
     e(  4 -  4) =      2.82880  eV     1   --> A''            

 **************************************************************************

 **************************************************************************

                    xk=(  -0.90833,   0.59167,   0.00000  )

     Band symmetry, C_s (m)     point group:

     e(  1 -  1) =     -1.79743  eV     1   --> A'             
     e(  2 -  2) =     -1.15367  eV     1   --> A''            
     e(  3 -  3) =      2.08314  eV     1   --> A'             
     e(  4 -  4) =      2.85890  eV     1   --> A''            

 **************************************************************************

 **************************************************************************

                    xk=(  -0.90417,   0.59583,   0.00000  )

     Band symmetry, C_s (m)     point group:

     e(  1 -  1) =     -1.80948  eV     1   --> A'             
     e(  2 -  2) =     -1.14539  eV     1   --> A''            
     e(  3 -  3) =      2.07370  eV     1   --> A'             
     e(  4 -  4) =      2.88942  eV     1   --> A''            

 **************************************************************************

 **************************************************************************

                    xk=(  -0.90000,   0.60000,   0.00000  )

     Band symmetry, C_s (m)     point group:

     e(  1 -  1) =     -1.82121  eV     1   --> A'             
     e(  2 -  2) =     -1.13749  eV     1   --> A''            
     e(  3 -  3) =      2.06450  eV     1   --> A'             
     e(  4 -  4) =      2.92033  eV     1   --> A''            

 **************************************************************************

 **************************************************************************

                    xk=(  -0.89583,   0.60417,   0.00000  )

     Band symmetry, C_s (m)     point group:

     e(  1 -  1) =     -1.83261  eV     1   --> A'             
     e(  2 -  2) =     -1.12997  eV     1   --> A''            
     e(  3 -  3) =      2.05555  eV     1   --> A'             
     e(  4 -  4) =      2.95159  eV     1   --> A''            

 **************************************************************************

 **************************************************************************

                    xk=(  -0.89167,   0.60833,   0.00000  )

     Band symmetry, C_s (m)     point group:

     e(  1 -  1) =     -1.84370  eV     1   --> A'             
     e(  2 -  2) =     -1.12281  eV     1   --> A''            
     e(  3 -  3) =      2.04683  eV     1   --> A'             
     e(  4 -  4) =      2.98316  eV     1   --> A''            

 **************************************************************************

 **************************************************************************

                    xk=(  -0.88750,   0.61250,   0.00000  )

     Band symmetry, C_s (m)     point group:

     e(  1 -  1) =     -1.85447  eV     1   --> A'             
     e(  2 -  2) =     -1.11600  eV     1   --> A''            
     e(  3 -  3) =      2.03835  eV     1   --> A'             
     e(  4 -  4) =      3.01499  eV     1   --> A''            

 **************************************************************************

 **************************************************************************

                    xk=(  -0.88333,   0.61667,   0.00000  )

     Band symmetry, C_s (m)     point group:

     e(  1 -  1) =     -1.86492  eV     1   --> A'             
     e(  2 -  2) =     -1.10954  eV     1   --> A''            
     e(  3 -  3) =      2.03012  eV     1   --> A'             
     e(  4 -  4) =      3.04703  eV     1   --> A''            

 **************************************************************************

 **************************************************************************

                    xk=(  -0.87917,   0.62083,   0.00000  )

     Band symmetry, C_s (m)     point group:

     e(  1 -  1) =     -1.87505  eV     1   --> A'             
     e(  2 -  2) =     -1.10339  eV     1   --> A''            
     e(  3 -  3) =      2.02213  eV     1   --> A'             
     e(  4 -  4) =      3.07924  eV     1   --> A''            

 **************************************************************************

 **************************************************************************

                    xk=(  -0.87500,   0.62500,   0.00000  )

     Band symmetry, C_s (m)     point group:

     e(  1 -  1) =     -1.88486  eV     1   --> A'             
     e(  2 -  2) =     -1.09757  eV     1   --> A''            
     e(  3 -  3) =      2.01439  eV     1   --> A'             
     e(  4 -  4) =      3.11155  eV     1   --> A''            

 **************************************************************************

 **************************************************************************

                    xk=(  -0.87083,   0.62917,   0.00000  )

     Band symmetry, C_s (m)     point group:

     e(  1 -  1) =     -1.89435  eV     1   --> A'             
     e(  2 -  2) =     -1.09206  eV     1   --> A''            
     e(  3 -  3) =      2.00689  eV     1   --> A'             
     e(  4 -  4) =      3.14392  eV     1   --> A''            

 **************************************************************************

 **************************************************************************

                    xk=(  -0.86667,   0.63333,   0.00000  )

     Band symmetry, C_s (m)     point group:

     e(  1 -  1) =     -1.90353  eV     1   --> A'             
     e(  2 -  2) =     -1.08684  eV     1   --> A''            
     e(  3 -  3) =      1.99964  eV     1   --> A'             
     e(  4 -  4) =      3.17628  eV     1   --> A''            

 **************************************************************************

 **************************************************************************

                    xk=(  -0.86250,   0.63750,   0.00000  )

     Band symmetry, C_s (m)     point group:

     e(  1 -  1) =     -1.91238  eV     1   --> A'             
     e(  2 -  2) =     -1.08191  eV     1   --> A''            
     e(  3 -  3) =      1.99263  eV     1   --> A'             
     e(  4 -  4) =      3.20858  eV     1   --> A''            

 **************************************************************************

 **************************************************************************

                    xk=(  -0.85833,   0.64167,   0.00000  )

     Band symmetry, C_s (m)     point group:

     e(  1 -  1) =     -1.92090  eV     1   --> A'             
     e(  2 -  2) =     -1.07726  eV     1   --> A''            
     e(  3 -  3) =      1.98587  eV     1   --> A'             
     e(  4 -  4) =      3.24076  eV     1   --> A''            

 **************************************************************************

 **************************************************************************

                    xk=(  -0.85417,   0.64583,   0.00000  )

     Band symmetry, C_s (m)     point group:

     e(  1 -  1) =     -1.92911  eV     1   --> A'             
     e(  2 -  2) =     -1.07286  eV     1   --> A''            
     e(  3 -  3) =      1.97937  eV     1   --> A'             
     e(  4 -  4) =      3.27275  eV     1   --> A''            

 **************************************************************************

 **************************************************************************

                    xk=(  -0.85000,   0.65000,   0.00000  )

     Band symmetry, C_s (m)     point group:

     e(  1 -  1) =     -1.93700  eV     1   --> A'             
     e(  2 -  2) =     -1.06872  eV     1   --> A''            
     e(  3 -  3) =      1.97311  eV     1   --> A'             
     e(  4 -  4) =      3.30448  eV     1   --> A''            

 **************************************************************************

 **************************************************************************

                    xk=(  -0.84583,   0.65417,   0.00000  )

     Band symmetry, C_s (m)     point group:

     e(  1 -  1) =     -1.94457  eV     1   --> A'             
     e(  2 -  2) =     -1.06483  eV     1   --> A''            
     e(  3 -  3) =      1.96710  eV     1   --> A'             
     e(  4 -  4) =      3.33588  eV     1   --> A''            

 **************************************************************************

 **************************************************************************

                    xk=(  -0.84167,   0.65833,   0.00000  )

     Band symmetry, C_s (m)     point group:

     e(  1 -  1) =     -1.95182  eV     1   --> A'             
     e(  2 -  2) =     -1.06117  eV     1   --> A''            
     e(  3 -  3) =      1.96135  eV     1   --> A'             
     e(  4 -  4) =      3.36688  eV     1   --> A''            

 **************************************************************************

 **************************************************************************

                    xk=(  -0.83750,   0.66250,   0.00000  )

     Band symmetry, C_s (m)     point group:

     e(  1 -  1) =     -1.95874  eV     1   --> A'             
     e(  2 -  2) =     -1.05774  eV     1   --> A''            
     e(  3 -  3) =      1.95584  eV     1   --> A'             
     e(  4 -  4) =      3.39741  eV     1   --> A''            

 **************************************************************************

 **************************************************************************

                    xk=(  -0.83333,   0.66667,   0.00000  )

     Band symmetry, C_s (m)     point group:

     e(  1 -  1) =     -1.96534  eV     1   --> A'             
     e(  2 -  2) =     -1.05453  eV     1   --> A''            
     e(  3 -  3) =      1.95059  eV     1   --> A'             
     e(  4 -  4) =      3.42738  eV     1   --> A''            

 **************************************************************************

 **************************************************************************

                    xk=(  -0.82917,   0.67083,   0.00000  )

     Band symmetry, C_s (m)     point group:

     e(  1 -  1) =     -1.97163  eV     1   --> A'             
     e(  2 -  2) =     -1.05153  eV     1   --> A''            
     e(  3 -  3) =      1.94559  eV     1   --> A'             
     e(  4 -  4) =      3.45671  eV     1   --> A''            

 **************************************************************************

 **************************************************************************

                    xk=(  -0.82500,   0.67500,   0.00000  )

     Band symmetry, C_s (m)     point group:

     e(  1 -  1) =     -1.97759  eV     1   --> A'             
     e(  2 -  2) =     -1.04873  eV     1   --> A''            
     e(  3 -  3) =      1.94084  eV     1   --> A'             
     e(  4 -  4) =      3.48532  eV     1   --> A''            

 **************************************************************************

 **************************************************************************

                    xk=(  -0.82083,   0.67917,   0.00000  )

     Band symmetry, C_s (m)     point group:

     e(  1 -  1) =     -1.98323  eV     1   --> A'             
     e(  2 -  2) =     -1.04613  eV     1   --> A''            
     e(  3 -  3) =      1.93635  eV     1   --> A'             
     e(  4 -  4) =      3.51312  eV     1   --> A''            

 **************************************************************************

 **************************************************************************

                    xk=(  -0.81667,   0.68333,   0.00000  )

     Band symmetry, C_s (m)     point group:

     e(  1 -  1) =     -1.98854  eV     1   --> A'             
     e(  2 -  2) =     -1.04371  eV     1   --> A''            
     e(  3 -  3) =      1.93211  eV     1   --> A'             
     e(  4 -  4) =      3.54002  eV     1   --> A''            

 **************************************************************************

 **************************************************************************

                    xk=(  -0.81250,   0.68750,   0.00000  )

     Band symmetry, C_s (m)     point group:

     e(  1 -  1) =     -1.99354  eV     1   --> A'             
     e(  2 -  2) =     -1.04147  eV     1   --> A''            
     e(  3 -  3) =      1.92812  eV     1   --> A'             
     e(  4 -  4) =      3.56593  eV     1   --> A''            

 **************************************************************************

 **************************************************************************

                    xk=(  -0.80833,   0.69167,   0.00000  )

     Band symmetry, C_s (m)     point group:

     e(  1 -  1) =     -1.99821  eV     1   --> A'             
     e(  2 -  2) =     -1.03941  eV     1   --> A''            
     e(  3 -  3) =      1.92440  eV     1   --> A'             
     e(  4 -  4) =      3.59074  eV     1   --> A''            

 **************************************************************************

 **************************************************************************

                    xk=(  -0.80417,   0.69583,   0.00000  )

     Band symmetry, C_s (m)     point group:

     e(  1 -  1) =     -2.00256  eV     1   --> A'             
     e(  2 -  2) =     -1.03752  eV     1   --> A''            
     e(  3 -  3) =      1.92092  eV     1   --> A'             
     e(  4 -  4) =      3.61438  eV     1   --> A''            

 **************************************************************************

 **************************************************************************

                    xk=(  -0.80000,   0.70000,   0.00000  )

     Band symmetry, C_s (m)     point group:

     e(  1 -  1) =     -2.00659  eV     1   --> A'             
     e(  2 -  2) =     -1.03578  eV     1   --> A''            
     e(  3 -  3) =      1.91770  eV     1   --> A'             
     e(  4 -  4) =      3.63675  eV     1   --> A''            

 **************************************************************************

 **************************************************************************

                    xk=(  -0.79583,   0.70417,   0.00000  )

     Band symmetry, C_s (m)     point group:

     e(  1 -  1) =     -2.01030  eV     1   --> A'             
     e(  2 -  2) =     -1.03421  eV     1   --> A''            
     e(  3 -  3) =      1.91474  eV     1   --> A'             
     e(  4 -  4) =      3.65775  eV     1   --> A''            

 **************************************************************************

 **************************************************************************

                    xk=(  -0.79167,   0.70833,   0.00000  )

     Band symmetry, C_s (m)     point group:

     e(  1 -  1) =     -2.01368  eV     1   --> A'             
     e(  2 -  2) =     -1.03279  eV     1   --> A''            
     e(  3 -  3) =      1.91204  eV     1   --> A'             
     e(  4 -  4) =      3.67731  eV     1   --> A''            

 **************************************************************************

 **************************************************************************

                    xk=(  -0.78750,   0.71250,   0.00000  )

     Band symmetry, C_s (m)     point group:

     e(  1 -  1) =     -2.01674  eV     1   --> A'             
     e(  2 -  2) =     -1.03152  eV     1   --> A''            
     e(  3 -  3) =      1.90959  eV     1   --> A'             
     e(  4 -  4) =      3.69529  eV     1   --> A''            

 **************************************************************************

 **************************************************************************

                    xk=(  -0.78333,   0.71667,   0.00000  )

     Band symmetry, C_s (m)     point group:

     e(  1 -  1) =     -2.01948  eV     1   --> A'             
     e(  2 -  2) =     -1.03039  eV     1   --> A''            
     e(  3 -  3) =      1.90740  eV     1   --> A'             
     e(  4 -  4) =      3.71165  eV     1   --> A''            

 **************************************************************************

 **************************************************************************

                    xk=(  -0.77917,   0.72083,   0.00000  )

     Band symmetry, C_s (m)     point group:

     e(  1 -  1) =     -2.02190  eV     1   --> A'             
     e(  2 -  2) =     -1.02941  eV     1   --> A''            
     e(  3 -  3) =      1.90546  eV     1   --> A'             
     e(  4 -  4) =      3.72630  eV     1   --> A''            

 **************************************************************************

 **************************************************************************

                    xk=(  -0.77500,   0.72500,   0.00000  )

     Band symmetry, C_s (m)     point group:

     e(  1 -  1) =     -2.02400  eV     1   --> A'             
     e(  2 -  2) =     -1.02856  eV     1   --> A''            
     e(  3 -  3) =      1.90379  eV     1   --> A'             
     e(  4 -  4) =      3.73917  eV     1   --> A''            

 **************************************************************************

 **************************************************************************

                    xk=(  -0.77083,   0.72917,   0.00000  )

     Band symmetry, C_s (m)     point group:

     e(  1 -  1) =     -2.02577  eV     1   --> A'             
     e(  2 -  2) =     -1.02784  eV     1   --> A''            
     e(  3 -  3) =      1.90237  eV     1   --> A'             
     e(  4 -  4) =      3.75017  eV     1   --> A''            

 **************************************************************************

 **************************************************************************

                    xk=(  -0.76667,   0.73333,   0.00000  )

     Band symmetry, C_s (m)     point group:

     e(  1 -  1) =     -2.02722  eV     1   --> A'             
     e(  2 -  2) =     -1.02726  eV     1   --> A''            
[...]

     Band symmetry, C_s (m)     point group:

     e(  1 -  1) =     -3.16791  eV     1   --> A'             
     e(  2 -  2) =     -0.65172  eV     1   --> A'             
     e(  3 -  3) =      3.48836  eV     1   --> A'             
     e(  4 -  4) =      4.60589  eV     1   --> A''            

 **************************************************************************

 **************************************************************************

                    xk=(  -0.60417,   0.60417,   0.29167  )

     Band symmetry, C_s (m)     point group:

     e(  1 -  1) =     -3.14593  eV     1   --> A'             
     e(  2 -  2) =     -0.64410  eV     1   --> A'             
     e(  3 -  3) =      3.40418  eV     1   --> A'             
     e(  4 -  4) =      4.57902  eV     1   --> A''            

 **************************************************************************

 **************************************************************************

                    xk=(  -0.60833,   0.60833,   0.28333  )

     Band symmetry, C_s (m)     point group:

     e(  1 -  1) =     -3.12310  eV     1   --> A'             
     e(  2 -  2) =     -0.63662  eV     1   --> A'             
     e(  3 -  3) =      3.32062  eV     1   --> A'             
     e(  4 -  4) =      4.55191  eV     1   --> A''            

 **************************************************************************

 **************************************************************************

                    xk=(  -0.61250,   0.61250,   0.27500  )

     Band symmetry, C_s (m)     point group:

     e(  1 -  1) =     -3.09942  eV     1   --> A'             
     e(  2 -  2) =     -0.62936  eV     1   --> A'             
     e(  3 -  3) =      3.23778  eV     1   --> A'             
     e(  4 -  4) =      4.52463  eV     1   --> A''            

 **************************************************************************

 **************************************************************************

                    xk=(  -0.61667,   0.61667,   0.26667  )

     Band symmetry, C_s (m)     point group:

     e(  1 -  1) =     -3.07490  eV     1   --> A'             
     e(  2 -  2) =     -0.62239  eV     1   --> A'             
     e(  3 -  3) =      3.15591  eV     1   --> A'             
     e(  4 -  4) =      4.49723  eV     1   --> A''            

 **************************************************************************

 **************************************************************************

                    xk=(  -0.62083,   0.62083,   0.25833  )

     Band symmetry, C_s (m)     point group:

     e(  1 -  1) =     -3.04953  eV     1   --> A'             
     e(  2 -  2) =     -0.61578  eV     1   --> A'             
     e(  3 -  3) =      3.07509  eV     1   --> A'             
     e(  4 -  4) =      4.46976  eV     1   --> A''            

 **************************************************************************

 **************************************************************************

                    xk=(  -0.62500,   0.62500,   0.25000  )

     Band symmetry, C_s (m)     point group:

     e(  1 -  1) =     -3.02334  eV     1   --> A'             
     e(  2 -  2) =     -0.60963  eV     1   --> A'             
     e(  3 -  3) =      2.99553  eV     1   --> A'             
     e(  4 -  4) =      4.44228  eV     1   --> A''            

 **************************************************************************

 **************************************************************************

                    xk=(  -0.62917,   0.62917,   0.24167  )

     Band symmetry, C_s (m)     point group:

     e(  1 -  1) =     -2.99633  eV     1   --> A'             
     e(  2 -  2) =     -0.60403  eV     1   --> A'             
     e(  3 -  3) =      2.91736  eV     1   --> A'             
     e(  4 -  4) =      4.41483  eV     1   --> A''            

 **************************************************************************

 **************************************************************************

                    xk=(  -0.63333,   0.63333,   0.23333  )

     Band symmetry, C_s (m)     point group:

     e(  1 -  1) =     -2.96850  eV     1   --> A'             
     e(  2 -  2) =     -0.59908  eV     1   --> A'             
     e(  3 -  3) =      2.84074  eV     1   --> A'             
     e(  4 -  4) =      4.38747  eV     1   --> A''            

 **************************************************************************

 **************************************************************************

                    xk=(  -0.63750,   0.63750,   0.22500  )

     Band symmetry, C_s (m)     point group:

     e(  1 -  1) =     -2.93988  eV     1   --> A'             
     e(  2 -  2) =     -0.59489  eV     1   --> A'             
     e(  3 -  3) =      2.76583  eV     1   --> A'             
     e(  4 -  4) =      4.36022  eV     1   --> A''            

 **************************************************************************

 **************************************************************************

                    xk=(  -0.64167,   0.64167,   0.21667  )

     Band symmetry, C_s (m)     point group:

     e(  1 -  1) =     -2.91047  eV     1   --> A'             
     e(  2 -  2) =     -0.59157  eV     1   --> A'             
     e(  3 -  3) =      2.69280  eV     1   --> A'             
     e(  4 -  4) =      4.33312  eV     1   --> A''            

 **************************************************************************

 **************************************************************************

                    xk=(  -0.64583,   0.64583,   0.20833  )

     Band symmetry, C_s (m)     point group:

     e(  1 -  1) =     -2.88028  eV     1   --> A'             
     e(  2 -  2) =     -0.58924  eV     1   --> A'             
     e(  3 -  3) =      2.62183  eV     1   --> A'             
     e(  4 -  4) =      4.30625  eV     1   --> A''            

 **************************************************************************

 **************************************************************************

                    xk=(  -0.65000,   0.65000,   0.20000  )

     Band symmetry, C_s (m)     point group:

     e(  1 -  1) =     -2.84933  eV     1   --> A'             
     e(  2 -  2) =     -0.58802  eV     1   --> A'             
     e(  3 -  3) =      2.55307  eV     1   --> A'             
     e(  4 -  4) =      4.27959  eV     1   --> A''            

 **************************************************************************

 **************************************************************************

                    xk=(  -0.65417,   0.65417,   0.19167  )

     Band symmetry, C_s (m)     point group:

     e(  1 -  1) =     -2.81765  eV     1   --> A'             
     e(  2 -  2) =     -0.58804  eV     1   --> A'             
     e(  3 -  3) =      2.48670  eV     1   --> A'             
     e(  4 -  4) =      4.25318  eV     1   --> A''            

 **************************************************************************

 **************************************************************************

                    xk=(  -0.65833,   0.65833,   0.18333  )

     Band symmetry, C_s (m)     point group:

     e(  1 -  1) =     -2.78524  eV     1   --> A'             
     e(  2 -  2) =     -0.58943  eV     1   --> A'             
     e(  3 -  3) =      2.42289  eV     1   --> A'             
     e(  4 -  4) =      4.22709  eV     1   --> A''            

 **************************************************************************

 **************************************************************************

                    xk=(  -0.66250,   0.66250,   0.17500  )

     Band symmetry, C_s (m)     point group:

     e(  1 -  1) =     -2.75212  eV     1   --> A'             
     e(  2 -  2) =     -0.59232  eV     1   --> A'             
     e(  3 -  3) =      2.36185  eV     1   --> A'             
     e(  4 -  4) =      4.20133  eV     1   --> A''            

 **************************************************************************

 **************************************************************************

                    xk=(  -0.66667,   0.66667,   0.16667  )

     Band symmetry, C_s (m)     point group:

     e(  1 -  1) =     -2.71834  eV     1   --> A'             
     e(  2 -  2) =     -0.59683  eV     1   --> A'             
     e(  3 -  3) =      2.30371  eV     1   --> A'             
     e(  4 -  4) =      4.17593  eV     1   --> A''            

 **************************************************************************

 **************************************************************************

                    xk=(  -0.67083,   0.67083,   0.15833  )

     Band symmetry, C_s (m)     point group:

     e(  1 -  1) =     -2.68391  eV     1   --> A'             
     e(  2 -  2) =     -0.60309  eV     1   --> A'             
     e(  3 -  3) =      2.24866  eV     1   --> A'             
     e(  4 -  4) =      4.15091  eV     1   --> A''            

 **************************************************************************

 **************************************************************************

                    xk=(  -0.67500,   0.67500,   0.15000  )

     Band symmetry, C_s (m)     point group:

     e(  1 -  1) =     -2.64886  eV     1   --> A'             
     e(  2 -  2) =     -0.61121  eV     1   --> A'             
     e(  3 -  3) =      2.19686  eV     1   --> A'             
     e(  4 -  4) =      4.12629  eV     1   --> A''            

 **************************************************************************

 **************************************************************************

                    xk=(  -0.67917,   0.67917,   0.14167  )

     Band symmetry, C_s (m)     point group:

     e(  1 -  1) =     -2.61324  eV     1   --> A'             
     e(  2 -  2) =     -0.62129  eV     1   --> A'             
     e(  3 -  3) =      2.14847  eV     1   --> A'             
     e(  4 -  4) =      4.10212  eV     1   --> A''            

 **************************************************************************

 **************************************************************************

                    xk=(  -0.68333,   0.68333,   0.13333  )

     Band symmetry, C_s (m)     point group:

     e(  1 -  1) =     -2.57708  eV     1   --> A'             
     e(  2 -  2) =     -0.63342  eV     1   --> A'             
     e(  3 -  3) =      2.10362  eV     1   --> A'             
     e(  4 -  4) =      4.07838  eV     1   --> A''            

 **************************************************************************

 **************************************************************************

                    xk=(  -0.68750,   0.68750,   0.12500  )

     Band symmetry, C_s (m)     point group:

     e(  1 -  1) =     -2.54044  eV     1   --> A'             
     e(  2 -  2) =     -0.64764  eV     1   --> A'             
     e(  3 -  3) =      2.06245  eV     1   --> A'             
     e(  4 -  4) =      4.05515  eV     1   --> A''            

 **************************************************************************

 **************************************************************************

                    xk=(  -0.69167,   0.69167,   0.11667  )

     Band symmetry, C_s (m)     point group:

     e(  1 -  1) =     -2.50339  eV     1   --> A'             
     e(  2 -  2) =     -0.66400  eV     1   --> A'             
     e(  3 -  3) =      2.02506  eV     1   --> A'             
     e(  4 -  4) =      4.03242  eV     1   --> A''            

 **************************************************************************

 **************************************************************************

                    xk=(  -0.69583,   0.69583,   0.10833  )

     Band symmetry, C_s (m)     point group:

     e(  1 -  1) =     -2.46599  eV     1   --> A'             
     e(  2 -  2) =     -0.68250  eV     1   --> A'             
     e(  3 -  3) =      1.99152  eV     1   --> A'             
     e(  4 -  4) =      4.01021  eV     1   --> A''            

 **************************************************************************

 **************************************************************************

                    xk=(  -0.70000,   0.70000,   0.10000  )

     Band symmetry, C_s (m)     point group:

     e(  1 -  1) =     -2.42832  eV     1   --> A'             
     e(  2 -  2) =     -0.70311  eV     1   --> A'             
     e(  3 -  3) =      1.96190  eV     1   --> A'             
     e(  4 -  4) =      3.98854  eV     1   --> A''            

 **************************************************************************

 **************************************************************************

                    xk=(  -0.70417,   0.70417,   0.09167  )

     Band symmetry, C_s (m)     point group:

     e(  1 -  1) =     -2.39050  eV     1   --> A'             
     e(  2 -  2) =     -0.72573  eV     1   --> A'             
     e(  3 -  3) =      1.93624  eV     1   --> A'             
     e(  4 -  4) =      3.96742  eV     1   --> A''            

 **************************************************************************

 **************************************************************************

                    xk=(  -0.70833,   0.70833,   0.08333  )

     Band symmetry, C_s (m)     point group:

     e(  1 -  1) =     -2.35264  eV     1   --> A'             
     e(  2 -  2) =     -0.75026  eV     1   --> A'             
     e(  3 -  3) =      1.91452  eV     1   --> A'             
     e(  4 -  4) =      3.94686  eV     1   --> A''            

 **************************************************************************

 **************************************************************************

                    xk=(  -0.71250,   0.71250,   0.07500  )

     Band symmetry, C_s (m)     point group:

     e(  1 -  1) =     -2.31490  eV     1   --> A'             
     e(  2 -  2) =     -0.77651  eV     1   --> A'             
     e(  3 -  3) =      1.89674  eV     1   --> A'             
     e(  4 -  4) =      3.92691  eV     1   --> A''            

 **************************************************************************

 **************************************************************************

                    xk=(  -0.71667,   0.71667,   0.06667  )

     Band symmetry, C_s (m)     point group:

     e(  1 -  1) =     -2.27746  eV     1   --> A'             
     e(  2 -  2) =     -0.80424  eV     1   --> A'             
     e(  3 -  3) =      1.88284  eV     1   --> A'             
     e(  4 -  4) =      3.90754  eV     1   --> A''            

 **************************************************************************

 **************************************************************************

                    xk=(  -0.72083,   0.72083,   0.05833  )

     Band symmetry, C_s (m)     point group:

     e(  1 -  1) =     -2.24054  eV     1   --> A'             
     e(  2 -  2) =     -0.83316  eV     1   --> A'             
     e(  3 -  3) =      1.87276  eV     1   --> A'             
     e(  4 -  4) =      3.88879  eV     1   --> A''            

 **************************************************************************

 **************************************************************************

                    xk=(  -0.72500,   0.72500,   0.05000  )

     Band symmetry, C_s (m)     point group:

     e(  1 -  1) =     -2.20443  eV     1   --> A'             
     e(  2 -  2) =     -0.86289  eV     1   --> A'             
     e(  3 -  3) =      1.86639  eV     1   --> A'             
     e(  4 -  4) =      3.87066  eV     1   --> A''            

 **************************************************************************

 **************************************************************************

                    xk=(  -0.72917,   0.72917,   0.04167  )

     Band symmetry, C_s (m)     point group:

     e(  1 -  1) =     -2.16946  eV     1   --> A'             
     e(  2 -  2) =     -0.89300  eV     1   --> A'             
     e(  3 -  3) =      1.86362  eV     1   --> A'             
     e(  4 -  4) =      3.85317  eV     1   --> A''            

 **************************************************************************

 **************************************************************************

                    xk=(  -0.73333,   0.73333,   0.03333  )

     Band symmetry, C_s (m)     point group:

     e(  1 -  1) =     -2.13605  eV     1   --> A'             
     e(  2 -  2) =     -0.92292  eV     1   --> A'             
     e(  3 -  3) =      1.86434  eV     1   --> A'             
     e(  4 -  4) =      3.83632  eV     1   --> A''            

 **************************************************************************

 **************************************************************************

                    xk=(  -0.73750,   0.73750,   0.02500  )

     Band symmetry, C_s (m)     point group:

     e(  1 -  1) =     -2.10471  eV     1   --> A'             
     e(  2 -  2) =     -0.95201  eV     1   --> A'             
     e(  3 -  3) =      1.86840  eV     1   --> A'             
     e(  4 -  4) =      3.82014  eV     1   --> A''            

 **************************************************************************

 **************************************************************************

                    xk=(  -0.74167,   0.74167,   0.01667  )

     Band symmetry, C_s (m)     point group:

     e(  1 -  1) =     -2.07606  eV     1   --> A'             
     e(  2 -  2) =     -0.97953  eV     1   --> A'             
     e(  3 -  3) =      1.87565  eV     1   --> A'             
     e(  4 -  4) =      3.80462  eV     1   --> A''            

 **************************************************************************

 **************************************************************************

                    xk=(  -0.74583,   0.74583,   0.00833  )

     Band symmetry, C_s (m)     point group:

     e(  1 -  1) =     -2.05082  eV     1   --> A'             
     e(  2 -  2) =     -1.00459  eV     1   --> A'             
     e(  3 -  3) =      1.88595  eV     1   --> A'             
     e(  4 -  4) =      3.78978  eV     1   --> A''            

 **************************************************************************

 **************************************************************************

                    xk=(  -0.75000,   0.75000,   0.00000  )

     point group C_2v (mm2) 
     there are  4 classes
     the character table:

       E     C2    s_v   s_v' 
A_1    1.00  1.00  1.00  1.00
A_2    1.00  1.00 -1.00 -1.00
B_1    1.00 -1.00  1.00 -1.00
B_2    1.00 -1.00 -1.00  1.00

     the symmetry operations in each class and the name of the first element:

     E        1
                                                                 
     C2       2
                                                                 
     s_v      4
                                                                 
     s_v'     3
                                                                 

     Band symmetry, C_2v (mm2)  point group:

     e(  1 -  1) =     -2.02980  eV     1   --> A_1  D_1  S_1  
     e(  2 -  2) =     -1.02624  eV     1   --> B_1  D_3  S_3  
     e(  3 -  3) =      1.89914  eV     1   --> A_1  D_1  S_1  
     e(  4 -  4) =      3.77563  eV     1   --> A_2  D_2  S_2  

 **************************************************************************

     BANDS        :      2.21s CPU      2.39s WALL


   This run was terminated on:  12:41:11   5Nov2025            

=------------------------------------------------------------------------------=
   JOB DONE.
=------------------------------------------------------------------------------=
