
     Program PWSCF v.7.4.1 starts on  5Nov2025 at 12:41:11 

     This program is part of the open-source Quantum ESPRESSO suite
     for quantum simulation of materials; please cite
         "P. Giannozzi et al., J. Phys.:Condens. Matter 21 395502 (2009);
         "P. Giannozzi et al., J. Phys.:Condens. Matter 29 465901 (2017);
         "P. Giannozzi et al., J. Chem. Phys. 152 154105 (2020);
          URL http://www.quantum-espresso.org", 
     in publications or presentations arising from this work. More details at
     http://www.quantum-espresso.org/quote

     Parallel version (MPI), running on     6 processors

     MPI processes distributed on     1 nodes
     0 MiB available memory on the printing compute node when the environment starts

     Reading input from si_nscf.in

     Current dimensions of program PWSCF are:
     Max number of different atomic species (ntypx) = 10
     Max number of k-points (npk) =  40000
     Max angular momentum in pseudopotentials (lmaxx) =  4

     IMPORTANT: XC functional enforced from input :
     Exchange-correlation= PBE
                           (   1   4   3   4   0   0   0)
     Any further DFT definition will be discarded
     Please, verify this is what you really want


     Atomic positions and unit cell read from directory:
     ./tmp/si.save/


     R & G space division:  proc/nbgrp/npool/nimage =       6
     Subspace diagonalization in iterative solution of the eigenvalue problem:
     a serial algorithm will be used


     Parallelization info
     --------------------
     sticks:   dense  smooth     PW     G-vecs:    dense   smooth      PW
     Min         143      72     24                 2814      997     189
     Max         144      73     26                 2817      999     190
     Sum         859     433    151                16889     5985    1139

     Using Slab Decomposition



     bravais-lattice index     =            2
     lattice parameter (alat)  =      10.2631  a.u.
     unit-cell volume          =     270.2562 (a.u.)^3
     number of atoms/cell      =            2
     number of atomic types    =            1
     number of electrons       =         8.00
     number of Kohn-Sham states=            8
     kinetic-energy cutoff     =      30.0000  Ry
     charge density cutoff     =     240.0000  Ry
     Exchange-correlation= PBE
                           (   1   4   3   4   0   0   0)

     celldm(1)=  10.263100  celldm(2)=   0.000000  celldm(3)=   0.000000
     celldm(4)=   0.000000  celldm(5)=   0.000000  celldm(6)=   0.000000

     crystal axes: (cart. coord. in units of alat)
               a(1) = (  -0.500000   0.000000   0.500000 )  
               a(2) = (   0.000000   0.500000   0.500000 )  
               a(3) = (  -0.500000   0.500000   0.000000 )  

     reciprocal axes: (cart. coord. in units 2 pi/alat)
               b(1) = ( -1.000000 -1.000000  1.000000 )  
               b(2) = (  1.000000  1.000000  1.000000 )  
               b(3) = ( -1.000000  1.000000 -1.000000 )  


     PseudoPot. # 1 for Si read from file:
     ./pseudos/Si.pbe-n-rrkjus_psl.1.0.0.UPF
     MD5 check sum: fa25574f73a70a4139f2adfbefec430c
     Pseudo is Ultrasoft + core correction, Zval =  4.0
     Generated using &quot;atomic&quot; code by A. Dal Corso  v.6.3
     Using radial grid of 1141 points,  6 beta functions with: 
                l(1) =   0
                l(2) =   0
                l(3) =   1
                l(4) =   1
                l(5) =   2
                l(6) =   2
     Q(r) pseudized with 0 coefficients 


     atomic species   valence    mass     pseudopotential
     Si                4.00    28.08550     Si( 1.00)

     48 Sym. Ops., with inversion, found (24 have fractional translation)



   Cartesian axes

     site n.     atom                  positions (alat units)
         1        Si     tau(   1) = (   0.0000000   0.0000000   0.0000000  )
         2        Si     tau(   2) = (  -0.2500000   0.2500000   0.2500000  )

     number of k points=    72 (tetrahedron method)
                       cart. coord. in units 2pi/alat
        k(    1) = (   0.0000000   0.0000000   0.0000000), wk =   0.0011574
        k(    2) = (  -0.0833333   0.0833333  -0.0833333), wk =   0.0092593
        k(    3) = (  -0.1666667   0.1666667  -0.1666667), wk =   0.0092593
        k(    4) = (  -0.2500000   0.2500000  -0.2500000), wk =   0.0092593
        k(    5) = (  -0.3333333   0.3333333  -0.3333333), wk =   0.0092593
        k(    6) = (  -0.4166667   0.4166667  -0.4166667), wk =   0.0092593
        k(    7) = (   0.5000000  -0.5000000   0.5000000), wk =   0.0046296
        k(    8) = (   0.0000000   0.1666667   0.0000000), wk =   0.0069444
        k(    9) = (  -0.0833333   0.2500000  -0.0833333), wk =   0.0277778
        k(   10) = (  -0.1666667   0.3333333  -0.1666667), wk =   0.0277778
        k(   11) = (  -0.2500000   0.4166667  -0.2500000), wk =   0.0277778
        k(   12) = (  -0.3333333   0.5000000  -0.3333333), wk =   0.0277778
        k(   13) = (   0.5833333  -0.4166667   0.5833333), wk =   0.0277778
        k(   14) = (   0.5000000  -0.3333333   0.5000000), wk =   0.0277778
        k(   15) = (   0.4166667  -0.2500000   0.4166667), wk =   0.0277778
        k(   16) = (   0.3333333  -0.1666667   0.3333333), wk =   0.0277778
        k(   17) = (   0.2500000  -0.0833333   0.2500000), wk =   0.0277778
        k(   18) = (   0.1666667  -0.0000000   0.1666667), wk =   0.0138889
        k(   19) = (   0.0000000   0.3333333   0.0000000), wk =   0.0069444
        k(   20) = (  -0.0833333   0.4166667  -0.0833333), wk =   0.0277778
        k(   21) = (  -0.1666667   0.5000000  -0.1666667), wk =   0.0277778
        k(   22) = (  -0.2500000   0.5833333  -0.2500000), wk =   0.0277778
        k(   23) = (   0.6666667  -0.3333333   0.6666667), wk =   0.0277778
        k(   24) = (   0.5833333  -0.2500000   0.5833333), wk =   0.0277778
        k(   25) = (   0.5000000  -0.1666667   0.5000000), wk =   0.0277778
        k(   26) = (   0.4166667  -0.0833333   0.4166667), wk =   0.0277778
        k(   27) = (   0.3333333   0.0000000   0.3333333), wk =   0.0138889
        k(   28) = (   0.0000000   0.5000000   0.0000000), wk =   0.0069444
        k(   29) = (  -0.0833333   0.5833333  -0.0833333), wk =   0.0277778
        k(   30) = (  -0.1666667   0.6666667  -0.1666667), wk =   0.0277778
        k(   31) = (   0.7500000  -0.2500000   0.7500000), wk =   0.0277778
        k(   32) = (   0.6666667  -0.1666667   0.6666667), wk =   0.0277778
        k(   33) = (   0.5833333  -0.0833333   0.5833333), wk =   0.0277778
        k(   34) = (   0.5000000   0.0000000   0.5000000), wk =   0.0138889
        k(   35) = (   0.0000000   0.6666667   0.0000000), wk =   0.0069444
        k(   36) = (  -0.0833333   0.7500000  -0.0833333), wk =   0.0277778
        k(   37) = (   0.8333333  -0.1666667   0.8333333), wk =   0.0277778
        k(   38) = (   0.7500000  -0.0833333   0.7500000), wk =   0.0277778
        k(   39) = (   0.6666667   0.0000000   0.6666667), wk =   0.0138889
        k(   40) = (   0.0000000   0.8333333   0.0000000), wk =   0.0069444
        k(   41) = (   0.9166667  -0.0833333   0.9166667), wk =   0.0277778
        k(   42) = (   0.8333333   0.0000000   0.8333333), wk =   0.0138889
        k(   43) = (   0.0000000  -1.0000000   0.0000000), wk =   0.0034722
        k(   44) = (  -0.1666667   0.3333333   0.0000000), wk =   0.0277778
        k(   45) = (  -0.2500000   0.4166667  -0.0833333), wk =   0.0555556
        k(   46) = (  -0.3333333   0.5000000  -0.1666667), wk =   0.0555556
        k(   47) = (   0.5833333  -0.4166667   0.7500000), wk =   0.0555556
        k(   48) = (   0.5000000  -0.3333333   0.6666667), wk =   0.0277778
        k(   49) = (  -0.1666667   0.5000000   0.0000000), wk =   0.0277778
        k(   50) = (  -0.2500000   0.5833333  -0.0833333), wk =   0.0555556
        k(   51) = (   0.6666667  -0.3333333   0.8333333), wk =   0.0555556
        k(   52) = (   0.5833333  -0.2500000   0.7500000), wk =   0.0555556
        k(   53) = (   0.5000000  -0.1666667   0.6666667), wk =   0.0555556
        k(   54) = (   0.4166667  -0.0833333   0.5833333), wk =   0.0555556
        k(   55) = (   0.3333333   0.0000000   0.5000000), wk =   0.0277778
        k(   56) = (  -0.1666667   0.6666667  -0.0000000), wk =   0.0277778
        k(   57) = (   0.7500000  -0.2500000   0.9166667), wk =   0.0555556
        k(   58) = (   0.6666667  -0.1666667   0.8333333), wk =   0.0555556
        k(   59) = (   0.5833333  -0.0833333   0.7500000), wk =   0.0555556
        k(   60) = (   0.5000000   0.0000000   0.6666667), wk =   0.0277778
        k(   61) = (   0.8333333  -0.1666667   1.0000000), wk =   0.0277778
        k(   62) = (   0.7500000  -0.0833333   0.9166667), wk =   0.0555556
        k(   63) = (   0.6666667   0.0000000   0.8333333), wk =   0.0277778
        k(   64) = (  -0.1666667  -1.0000000   0.0000000), wk =   0.0138889
        k(   65) = (   0.6666667  -0.3333333   1.0000000), wk =   0.0277778
        k(   66) = (   0.5833333  -0.2500000   0.9166667), wk =   0.0555556
        k(   67) = (   0.5000000  -0.1666667   0.8333333), wk =   0.0277778
        k(   68) = (   0.6666667  -0.1666667   1.0000000), wk =   0.0277778
        k(   69) = (   0.5833333  -0.0833333   0.9166667), wk =   0.0555556
        k(   70) = (   0.5000000   0.0000000   0.8333333), wk =   0.0277778
        k(   71) = (  -0.3333333  -1.0000000   0.0000000), wk =   0.0138889
        k(   72) = (  -0.5000000  -1.0000000   0.0000000), wk =   0.0069444

     Dense  grid:    16889 G-vectors     FFT dimensions: (  36,  36,  36)

     Smooth grid:     5985 G-vectors     FFT dimensions: (  32,  32,  32)

     Estimated max dynamical RAM per process >      10.31 MB

     Estimated total dynamical RAM >      61.86 MB

     The potential is recalculated from file :
     ./tmp/si.save/charge-density

     Starting wfcs are    8 randomized atomic wfcs

     Band Structure Calculation
     Davidson diagonalization with overlap

     ethr =  1.25E-12,  avg # of iterations = 44.2

     total cpu time spent up to now is        2.4 secs

     End of band structure calculation

          k = 0.0000 0.0000 0.0000 (   749 PWs)   bands (ev):

    -5.7593   6.2024   6.2024   6.2024   8.7639   8.7639   8.7639   9.5601

          k =-0.0833 0.0833-0.0833 (   737 PWs)   bands (ev):

    -5.6684   5.3429   6.0585   6.0585   8.8082   8.9756   8.9756  10.2245

          k =-0.1667 0.1667-0.1667 (   748 PWs)   bands (ev):

    -5.3983   3.8199   5.7515   5.7515   8.5511   9.4120   9.4120  11.6508

          k =-0.2500 0.2500-0.2500 (   754 PWs)   bands (ev):

    -4.9599   2.2735   5.4417   5.4417   8.2290   9.7077   9.7077  13.1171

          k =-0.3333 0.3333-0.3333 (   757 PWs)   bands (ev):

    -4.3830   0.8662   5.2008   5.2008   7.9632   9.7094   9.7094  14.0707

          k =-0.4167 0.4167-0.4167 (   760 PWs)   bands (ev):

    -3.7627  -0.2637   5.0522   5.0522   7.7949   9.5973   9.5973  14.0160

          k = 0.5000-0.5000 0.5000 (   754 PWs)   bands (ev):

    -3.4286  -0.7692   5.0024   5.0024   7.7378   9.5429   9.5429  13.9340

          k = 0.0000 0.1667 0.0000 (   745 PWs)   bands (ev):

    -5.6379   5.5080   5.7719   5.7719   8.4901   9.3437   9.3437  10.2005

          k =-0.0833 0.2500-0.0833 (   755 PWs)   bands (ev):

    -5.4270   4.2734   5.4075   5.5985   8.5128   9.4258   9.8824  11.1004

          k =-0.1667 0.3333-0.1667 (   753 PWs)   bands (ev):

    -5.0432   2.7711   5.0942   5.2748   8.6396   9.4156  10.2685  11.6044

          k =-0.2500 0.4167-0.2500 (   758 PWs)   bands (ev):

    -4.5074   1.3344   4.8841   4.9213   8.4957   9.4993  10.2922  12.1750

          k =-0.3333 0.5000-0.3333 (   757 PWs)   bands (ev):

    -3.8819   0.1040   4.6248   4.7942   8.3299   9.4672  10.0971  13.2235

          k = 0.5833-0.4167 0.5833 (   755 PWs)   bands (ev):

    -3.3912  -0.6659   4.4197   4.8251   8.2496   9.4692   9.8973  14.1252

          k = 0.5000-0.3333 0.5000 (   754 PWs)   bands (ev):

    -3.5121  -0.4882   4.3242   4.9683   8.2766   9.5858   9.7862  14.2334

          k = 0.4167-0.2500 0.4167 (   752 PWs)   bands (ev):

    -4.0938   0.4842   4.3515   5.2081   8.4096   9.7537   9.7952  13.6899

          k = 0.3333-0.1667 0.3333 (   752 PWs)   bands (ev):

    -4.7016   1.7989   4.5112   5.5185   8.6354   9.6721   9.9475  12.7215

          k = 0.2500-0.0833 0.2500 (   756 PWs)   bands (ev):

    -5.1902   3.2580   4.8154   5.8484   8.9178   9.3715   9.7339  11.9412

          k = 0.1667-0.0000 0.1667 (   747 PWs)   bands (ev):

    -5.5175   4.6117   5.3380   6.0842   9.0136   9.1324   9.1704  11.0231

          k = 0.0000 0.3333 0.0000 (   753 PWs)   bands (ev):

    -5.2754   4.1628   5.0083   5.0083   7.9064  10.5019  10.5473  10.5473

          k =-0.0833 0.4167-0.0833 (   752 PWs)   bands (ev):

    -4.9484   3.0752   4.6609   4.6737   7.9265  10.0995  10.8855  11.1106

          k =-0.1667 0.5000-0.1667 (   750 PWs)   bands (ev):

    -4.4604   1.7642   4.2083   4.4549   8.1673  10.2682  10.7282  11.2784

          k =-0.2500 0.5833-0.2500 (   754 PWs)   bands (ev):

    -3.8527   0.5293   3.7688   4.3709   8.2129  10.4605  11.0984  11.2558

          k = 0.6667-0.3333 0.6667 (   752 PWs)   bands (ev):

    -3.2693  -0.4051   3.4241   4.4246   8.2443  10.3184  10.8255  12.6253

          k = 0.5833-0.2500 0.5833 (   749 PWs)   bands (ev):

    -3.1549  -0.5649   3.2101   4.6086   8.3889  10.2714  10.5989  14.1807

          k = 0.5000-0.1667 0.5000 (   757 PWs)   bands (ev):

    -3.6542   0.1941   3.1535   4.9039   8.6537  10.3262  10.4324  13.4954

          k = 0.4167-0.0833 0.4167 (   750 PWs)   bands (ev):

    -4.2784   1.3412   3.2980   5.2723   8.9851  10.2034  10.3817  12.3352

          k = 0.3333 0.0000 0.3333 (   748 PWs)   bands (ev):

    -4.8102   2.4833   3.7886   5.6368   9.2408   9.7596  10.0515  11.8676

          k = 0.0000 0.5000 0.0000 (   729 PWs)   bands (ev):

    -4.6778   2.6836   4.3111   4.3111   7.3324   9.3371  11.9597  11.9597

          k =-0.0833 0.5833-0.0833 (   745 PWs)   bands (ev):

    -4.2413   1.7732   3.8456   4.0645   7.4164   8.9832  12.2480  12.4419

          k =-0.1667 0.6667-0.1667 (   752 PWs)   bands (ev):

    -3.6661   0.7441   3.2134   3.9572   7.6348   9.4548  12.1142  12.4003

          k = 0.7500-0.2500 0.7500 (   748 PWs)   bands (ev):

    -3.0422  -0.1822   2.6668   3.9959   7.7230  10.6530  11.9464  12.1231

          k = 0.6667-0.1667 0.6667 (   743 PWs)   bands (ev):

    -2.7183  -0.5968   2.3037   4.1759   7.9024  11.6616  11.8258  12.3699

          k = 0.5833-0.0833 0.5833 (   751 PWs)   bands (ev):

    -3.0943  -0.1028   2.1842   4.4808   8.2266  11.5247  11.6438  13.3848

          k = 0.5000 0.0000 0.5000 (   754 PWs)   bands (ev):

    -3.7162   0.7202   2.4483   4.8733   8.6521  10.9909  11.3383  12.3470

          k = 0.0000 0.6667 0.0000 (   749 PWs)   bands (ev):

    -3.8557   1.1896   3.7832   3.7832   6.9296   8.1959  13.4661  13.4661

          k =-0.0833 0.7500-0.0833 (   752 PWs)   bands (ev):

    -3.3211   0.4036   3.2972   3.6404   7.0921   8.0656  13.7907  13.8362

          k = 0.8333-0.1667 0.8333 (   749 PWs)   bands (ev):

    -2.6922  -0.3649   2.5690   3.6466   7.2663   8.9210  13.6544  13.6830

          k = 0.7500-0.0833 0.7500 (   744 PWs)   bands (ev):

    -2.2232  -0.8561   1.9902   3.8004   7.4432  10.3682  13.3022  13.5158

          k = 0.6667 0.0000 0.6667 (   740 PWs)   bands (ev):

    -2.4961  -0.5699   1.7883   4.0890   7.7702  12.0078  12.6784  13.2796

          k = 0.0000 0.8333 0.0000 (   753 PWs)   bands (ev):

    -2.8265  -0.2615   3.4580   3.4580   6.7745   7.3795  15.0277  15.0277

          k = 0.9167-0.0833 0.9167 (   749 PWs)   bands (ev):

    -2.2130  -0.9494   3.0262   3.4243   6.9760   7.5454  15.2733  15.3734

          k = 0.8333 0.0000 0.8333 (   744 PWs)   bands (ev):

    -1.7572  -1.3535   2.3554   3.5414   7.1359   8.7468  14.7247  15.2547

          k = 0.0000-1.0000 0.0000 (   740 PWs)   bands (ev):

    -1.6161  -1.6161   3.3484   3.3484   6.9131   6.9131  16.3032  16.3032

          k =-0.1667 0.3333 0.0000 (   752 PWs)   bands (ev):

    -5.1584   3.4738   4.5672   5.4954   8.5398   9.7478  10.3587  11.1136

          k =-0.2500 0.4167-0.0833 (   756 PWs)   bands (ev):

    -4.7221   2.2321   4.0348   5.2200   8.8212   9.7158  10.7660  11.1008

          k =-0.3333 0.5000-0.1667 (   751 PWs)   bands (ev):

    -4.1470   0.9300   3.7654   4.8922   8.8626   9.5938  10.8238  11.7505

          k = 0.5833-0.4167 0.7500 (   752 PWs)   bands (ev):

    -3.5254  -0.1600   3.6382   4.6454   8.8066   9.4049  10.7425  12.9660

          k = 0.5000-0.3333 0.6667 (   748 PWs)   bands (ev):

    -3.1870  -0.6584   3.6027   4.5536   8.7852   9.3199  10.6972  14.2764

          k =-0.1667 0.5000 0.0000 (   748 PWs)   bands (ev):

    -4.5673   2.2804   3.8714   4.5744   7.9927   9.7323  11.0214  11.8397

          k =-0.2500 0.5833-0.0833 (   750 PWs)   bands (ev):

    -4.0348   1.2297   3.3340   4.2856   8.3260   9.9519  10.7647  12.2260

          k = 0.6667-0.3333 0.8333 (   750 PWs)   bands (ev):

    -3.4095   0.1749   2.9776   4.0746   8.4474  10.4142  11.0143  12.2079

          k = 0.5833-0.2500 0.7500 (   746 PWs)   bands (ev):

    -2.9126  -0.5318   2.7318   4.0564   8.5754  10.1401  12.1000  12.4833

          k = 0.5000-0.1667 0.6667 (   748 PWs)   bands (ev):

    -3.0483  -0.3446   2.6134   4.2293   8.8249   9.9508  12.0163  12.8701

          k = 0.4167-0.0833 0.5833 (   755 PWs)   bands (ev):

    -3.6385   0.5328   2.6873   4.5465   9.1836   9.8088  11.4957  11.9717

          k = 0.3333 0.0000 0.5000 (   756 PWs)   bands (ev):

    -4.2410   1.5125   3.1023   4.9287   9.4153   9.5620  10.8777  11.5406

          k =-0.1667 0.6667-0.0000 (   754 PWs)   bands (ev):

    -3.7571   1.0142   3.3615   3.7893   7.5953   8.6829  12.2663  13.4149

          k = 0.7500-0.2500 0.9167 (   750 PWs)   bands (ev):

    -3.1515   0.1787   2.7735   3.5721   7.9299   9.2129  11.9657  13.7845

          k = 0.6667-0.1667 0.8333 (   746 PWs)   bands (ev):

    -2.5622  -0.5363   2.2523   3.5801   8.0839  10.5072  11.6705  13.7173

          k = 0.5833-0.0833 0.7500 (   743 PWs)   bands (ev):

    -2.4911  -0.6073   1.9635   3.7788   8.3406  11.2621  12.2568  12.9377

          k = 0.5000 0.0000 0.6667 (   753 PWs)   bands (ev):

    -3.0288  -0.0168   2.0503   4.1242   8.7324  10.8482  11.7087  13.0446

          k = 0.8333-0.1667 1.0000 (   745 PWs)   bands (ev):

    -2.7491  -0.2980   3.0776   3.2740   7.4248   7.9377  13.6434  15.0232

          k = 0.7500-0.0833 0.9167 (   745 PWs)   bands (ev):

    -2.1201  -0.9410   2.4488   3.2302   7.7171   8.8444  13.3234  14.8052

          k = 0.6667 0.0000 0.8333 (   745 PWs)   bands (ev):

    -1.9653  -1.0545   1.9506   3.4274   7.9546  10.3750  12.8628  13.2553

          k =-0.1667-1.0000 0.0000 (   754 PWs)   bands (ev):

    -1.5780  -1.5780   3.0421   3.0421   7.5271   7.5271  15.1141  15.1141

          k = 0.6667-0.3333 1.0000 (   748 PWs)   bands (ev):

    -3.4707   0.5566   2.6315   3.9062   9.0563   9.9199  10.4370  13.2693

          k = 0.5833-0.2500 0.9167 (   746 PWs)   bands (ev):

    -2.8466  -0.2135   2.2844   3.5690   9.4311   9.9705  10.9586  13.6984

          k = 0.5000-0.1667 0.8333 (   738 PWs)   bands (ev):

    -2.4861  -0.6428   2.1914   3.4395   9.5603   9.7603  12.3062  12.7219

          k = 0.6667-0.1667 1.0000 (   746 PWs)   bands (ev):

    -2.5352  -0.4422   2.4327   3.0514   8.8859   9.2901  11.5869  14.5169

          k = 0.5833-0.0833 0.9167 (   745 PWs)   bands (ev):

    -2.0120  -0.9488   2.1170   2.8971   9.2275  10.4917  11.3123  12.6994

          k = 0.5000 0.0000 0.8333 (   745 PWs)   bands (ev):

    -2.2435  -0.7189   1.9922   3.1222   9.5293  10.6797  11.2030  12.4473

          k =-0.3333-1.0000 0.0000 (   742 PWs)   bands (ev):

    -1.4963  -1.4963   2.5562   2.5562   8.9527   8.9527  12.9672  12.9672

          k =-0.5000-1.0000 0.0000 (   744 PWs)   bands (ev):

    -1.4523  -1.4523   2.3483   2.3483  10.4753  10.4753  11.2042  11.2042

     the Fermi energy is     6.6508 ev
     (compare with:     6.5674 eV, computed in scf)

     Writing all to output data dir ./tmp/si.save/ :
     XML data file, pseudopotentials, collected wavefunctions

     init_run     :      0.06s CPU      0.07s WALL (       1 calls)
     electrons    :      2.03s CPU      2.17s WALL (       1 calls)

     Called by init_run:
     wfcinit      :      0.00s CPU      0.00s WALL (       1 calls)
     potinit      :      0.01s CPU      0.01s WALL (       1 calls)
     hinit0       :      0.04s CPU      0.04s WALL (       1 calls)

     Called by electrons:
     c_bands      :      2.01s CPU      2.16s WALL (       1 calls)
     v_of_rho     :      0.00s CPU      0.00s WALL (       1 calls)
     newd         :      0.01s CPU      0.01s WALL (       1 calls)

     Called by c_bands:
     init_us_2    :      0.00s CPU      0.00s WALL (      72 calls)
     cegterg      :      1.95s CPU      2.09s WALL (     191 calls)

     Called by *egterg:
     cdiaghg      :      0.15s CPU      0.16s WALL (    3255 calls)
     h_psi        :      1.54s CPU      1.62s WALL (    3446 calls)
     s_psi        :      0.04s CPU      0.06s WALL (    3446 calls)
     g_psi        :      0.00s CPU      0.00s WALL (    3183 calls)

     Called by h_psi:
     h_psi:calbec :      0.10s CPU      0.12s WALL (    3446 calls)
     vloc_psi     :      1.39s CPU      1.43s WALL (    3446 calls)
     add_vuspsi   :      0.05s CPU      0.05s WALL (    3446 calls)

     General routines
     calbec       :      0.10s CPU      0.12s WALL (    3446 calls)
     fft          :      0.01s CPU      0.01s WALL (      13 calls)
     ffts         :      0.00s CPU      0.00s WALL (       1 calls)
     fftw         :      1.28s CPU      1.31s WALL (   35814 calls)
     interpolate  :      0.00s CPU      0.00s WALL (       1 calls)
     davcio       :      0.00s CPU      0.00s WALL (     144 calls)

     Parallel routines

     PWSCF        :      2.29s CPU      2.47s WALL


   This run was terminated on:  12:41:13   5Nov2025            

=------------------------------------------------------------------------------=
   JOB DONE.
=------------------------------------------------------------------------------=
