
     Program PWSCF v.7.4.1 starts on  5Nov2025 at 14: 0:58 

     This program is part of the open-source Quantum ESPRESSO suite
     for quantum simulation of materials; please cite
         "P. Giannozzi et al., J. Phys.:Condens. Matter 21 395502 (2009);
         "P. Giannozzi et al., J. Phys.:Condens. Matter 29 465901 (2017);
         "P. Giannozzi et al., J. Chem. Phys. 152 154105 (2020);
          URL http://www.quantum-espresso.org", 
     in publications or presentations arising from this work. More details at
     http://www.quantum-espresso.org/quote

     Parallel version (MPI), running on     1 processors

     MPI processes distributed on     1 nodes
     0 MiB available memory on the printing compute node when the environment starts

     Reading input from si_scf.in

     Current dimensions of program PWSCF are:
     Max number of different atomic species (ntypx) = 10
     Max number of k-points (npk) =  40000
     Max angular momentum in pseudopotentials (lmaxx) =  4

     IMPORTANT: XC functional enforced from input :
     Exchange-correlation= PBE
                           (   1   4   3   4   0   0   0)
     Any further DFT definition will be discarded
     Please, verify this is what you really want

     Message from routine setup:
     no reason to have ecutrho>4*ecutwfc

     Subspace diagonalization in iterative solution of the eigenvalue problem:
     a serial algorithm will be used


     G-vector sticks info
     --------------------
     sticks:   dense  smooth     PW     G-vecs:    dense   smooth      PW
     Sum         859     433    151                16889     5985    1139

     Using Slab Decomposition



     bravais-lattice index     =            2
     lattice parameter (alat)  =      10.2631  a.u.
     unit-cell volume          =     270.2562 (a.u.)^3
     number of atoms/cell      =            2
     number of atomic types    =            1
     number of electrons       =         0.00
     number of Kohn-Sham states=            4
     kinetic-energy cutoff     =      30.0000  Ry
     charge density cutoff     =     240.0000  Ry
     scf convergence threshold =      1.0E-08
     mixing beta               =       0.3000
     number of iterations used =            8  plain     mixing
     Exchange-correlation= PBE
                           (   1   4   3   4   0   0   0)

     celldm(1)=  10.263100  celldm(2)=   0.000000  celldm(3)=   0.000000
     celldm(4)=   0.000000  celldm(5)=   0.000000  celldm(6)=   0.000000

     crystal axes: (cart. coord. in units of alat)
               a(1) = (  -0.500000   0.000000   0.500000 )  
               a(2) = (   0.000000   0.500000   0.500000 )  
               a(3) = (  -0.500000   0.500000   0.000000 )  

     reciprocal axes: (cart. coord. in units 2 pi/alat)
               b(1) = ( -1.000000 -1.000000  1.000000 )  
               b(2) = (  1.000000  1.000000  1.000000 )  
               b(3) = ( -1.000000  1.000000 -1.000000 )  


     PseudoPot. # 1 for    read from file:
     ./pseudos/Si.pbe-n-rrkjus_psl.1.0.0.UPF
     MD5 check sum: fa25574f73a70a4139f2adfbefec430c
     Pseudo is Norm-conserving, Zval =  0.0
     
     Using radial grid of    0 points,  0 beta functions with: 

     atomic species   valence    mass     pseudopotential
     Si                0.00    28.08550       ( 1.00)

     48 Sym. Ops., with inversion, found (24 have fractional translation)



   Cartesian axes

     site n.     atom                  positions (alat units)
         1        Si     tau(   1) = (   0.0000000   0.0000000   0.0000000  )
         2        Si     tau(   2) = (  -0.2500000   0.2500000   0.2500000  )

     number of k points=    29  Marzari-Vanderbilt smearing, width (Ry)=  0.0200
                       cart. coord. in units 2pi/alat
        k(    1) = (   0.0000000   0.0000000   0.0000000), wk =   0.0039062
        k(    2) = (  -0.1250000   0.1250000  -0.1250000), wk =   0.0312500
        k(    3) = (  -0.2500000   0.2500000  -0.2500000), wk =   0.0312500
        k(    4) = (  -0.3750000   0.3750000  -0.3750000), wk =   0.0312500
        k(    5) = (   0.5000000  -0.5000000   0.5000000), wk =   0.0156250
        k(    6) = (   0.0000000   0.2500000   0.0000000), wk =   0.0234375
        k(    7) = (  -0.1250000   0.3750000  -0.1250000), wk =   0.0937500
        k(    8) = (  -0.2500000   0.5000000  -0.2500000), wk =   0.0937500
        k(    9) = (   0.6250000  -0.3750000   0.6250000), wk =   0.0937500
        k(   10) = (   0.5000000  -0.2500000   0.5000000), wk =   0.0937500
        k(   11) = (   0.3750000  -0.1250000   0.3750000), wk =   0.0937500
        k(   12) = (   0.2500000   0.0000000   0.2500000), wk =   0.0468750
        k(   13) = (   0.0000000   0.5000000   0.0000000), wk =   0.0234375
        k(   14) = (  -0.1250000   0.6250000  -0.1250000), wk =   0.0937500
        k(   15) = (   0.7500000  -0.2500000   0.7500000), wk =   0.0937500
        k(   16) = (   0.6250000  -0.1250000   0.6250000), wk =   0.0937500
        k(   17) = (   0.5000000   0.0000000   0.5000000), wk =   0.0468750
        k(   18) = (   0.0000000   0.7500000   0.0000000), wk =   0.0234375
        k(   19) = (   0.8750000  -0.1250000   0.8750000), wk =   0.0937500
        k(   20) = (   0.7500000   0.0000000   0.7500000), wk =   0.0468750
        k(   21) = (   0.0000000  -1.0000000   0.0000000), wk =   0.0117188
        k(   22) = (  -0.2500000   0.5000000   0.0000000), wk =   0.0937500
        k(   23) = (   0.6250000  -0.3750000   0.8750000), wk =   0.1875000
        k(   24) = (   0.5000000  -0.2500000   0.7500000), wk =   0.0937500
        k(   25) = (   0.7500000  -0.2500000   1.0000000), wk =   0.0937500
        k(   26) = (   0.6250000  -0.1250000   0.8750000), wk =   0.1875000
        k(   27) = (   0.5000000   0.0000000   0.7500000), wk =   0.0937500
        k(   28) = (  -0.2500000  -1.0000000   0.0000000), wk =   0.0468750
        k(   29) = (  -0.5000000  -1.0000000   0.0000000), wk =   0.0234375

     Dense  grid:    16889 G-vectors     FFT dimensions: (  36,  36,  36)

     Smooth grid:     5985 G-vectors     FFT dimensions: (  32,  32,  32)

     Estimated max dynamical RAM per process >      10.37 MB

     Initial potential from superposition of free atoms
     Starting wfcs are random

     total cpu time spent up to now is        0.1 secs

     Self-consistent Calculation

     iteration #  1     ecut=    30.00 Ry     beta= 0.30
     Davidson diagonalization with overlap
     ethr =  1.00E-02,  avg # of iterations =  6.2

     Threshold (ethr) on eigenvalues was too large:
     Diagonalizing with lowered threshold

     Davidson diagonalization with overlap
     ethr =  7.74E-48,  avg # of iterations =  5.1

     total cpu time spent up to now is        0.3 secs

     End of self-consistent calculation

          k = 0.0000 0.0000 0.0000 (   749 PWs)   bands (ev):

     0.0000  15.2983  15.2984  15.2984

          k =-0.1250 0.1250-0.1250 (   743 PWs)   bands (ev):

     0.2390  11.7128  14.2625  14.2625

          k =-0.2500 0.2500-0.2500 (   754 PWs)   bands (ev):

     0.9561   8.6053  13.7048  13.7048

          k =-0.3750 0.3750-0.3750 (   763 PWs)   bands (ev):

     2.1513   5.9759  13.6251  13.6251

          k = 0.5000-0.5000 0.5000 (   754 PWs)   bands (ev):

     3.8246   3.8246  14.0235  14.0235

          k = 0.0000 0.2500 0.0000 (   745 PWs)   bands (ev):

     0.3187  13.0673  13.0673  13.0674

          k =-0.1250 0.3750-0.1250 (   757 PWs)   bands (ev):

     0.8765   9.8005  12.3502  12.3504

          k =-0.2500 0.5000-0.2500 (   746 PWs)   bands (ev):

     1.9123   7.0117  12.1112  12.1112

          k = 0.6250-0.3750 0.6250 (   753 PWs)   bands (ev):

     3.4262   4.7011  11.0754  12.3502

          k = 0.5000-0.2500 0.5000 (   750 PWs)   bands (ev):

     2.8684   5.4182  10.5176  13.0674

          k = 0.3750-0.1250 0.3750 (   748 PWs)   bands (ev):

     1.5139   7.8882  10.4379  14.2625

          k = 0.2500 0.0000 0.2500 (   753 PWs)   bands (ev):

     0.6374  10.8363  10.8363  15.9358

          k = 0.0000 0.5000 0.0000 (   729 PWs)   bands (ev):

     1.2749  11.4738  11.4738  11.4738

          k =-0.1250 0.6250-0.1250 (   751 PWs)   bands (ev):

     2.1513   8.5256   9.8006  11.0754

          k = 0.7500-0.2500 0.7500 (   748 PWs)   bands (ev):

     3.5059   6.0556   8.6053  11.1550

          k = 0.6250-0.1250 0.6250 (   744 PWs)   bands (ev):

     4.0636   5.3385   7.8882  11.7128

          k = 0.5000 0.0000 0.5000 (   754 PWs)   bands (ev):

     2.5497   7.6492   7.6492  12.7486

          k = 0.0000 0.7500 0.0000 (   753 PWs)   bands (ev):

     2.8685   7.9679  10.5176  10.5176

          k = 0.8750-0.1250 0.8750 (   747 PWs)   bands (ev):

     4.0636   6.6133   7.8882  10.4379

          k = 0.7500 0.0000 0.7500 (   740 PWs)   bands (ev):

     5.7369   5.7369   5.7369  10.8363

          k = 0.0000-1.0000 0.0000 (   740 PWs)   bands (ev):

     5.0995   5.0995  10.1989  10.1989

          k =-0.2500 0.5000 0.0000 (   755 PWs)   bands (ev):

     1.5936   9.2428   9.2428  11.7925

          k = 0.6250-0.3750 0.8750 (   747 PWs)   bands (ev):

     2.7888   6.6133   9.1631  10.4380

          k = 0.5000-0.2500 0.7500 (   750 PWs)   bands (ev):

     4.4620   4.4620   9.5615   9.5615

          k = 0.7500-0.2500 1.0000 (   755 PWs)   bands (ev):

     3.1872   8.2866   8.2866   8.2866

          k = 0.6250-0.1250 0.8750 (   748 PWs)   bands (ev):

     4.7011   5.9759   7.2508   8.5257

          k = 0.5000 0.0000 0.7500 (   747 PWs)   bands (ev):

     4.1433   6.6930   6.6930   9.2428

          k =-0.2500-1.0000 0.0000 (   742 PWs)   bands (ev):

     5.4182   5.4182   7.9679   7.9679

          k =-0.5000-1.0000 0.0000 (   744 PWs)   bands (ev):

     6.3743   6.3743   6.3743   6.3743

     the Fermi energy is    -1.3850 ev

     WARNING: integrated charge=     0.00000000, expected=     0.00000000

 %%%%%%%%%%%%%%%%%%%%%%%%%%%%%%%%%%%%%%%%%%%%%%%%%%%%%%%%%%%%%%%%%%%%%%%%%%%%%%
     Error in routine electrons (1):
     charge is wrong
 %%%%%%%%%%%%%%%%%%%%%%%%%%%%%%%%%%%%%%%%%%%%%%%%%%%%%%%%%%%%%%%%%%%%%%%%%%%%%%

     stopping ...
