
     Program PWSCF v.7.4.1 starts on  5Nov2025 at 12:41: 0 

     This program is part of the open-source Quantum ESPRESSO suite
     for quantum simulation of materials; please cite
         "P. Giannozzi et al., J. Phys.:Condens. Matter 21 395502 (2009);
         "P. Giannozzi et al., J. Phys.:Condens. Matter 29 465901 (2017);
         "P. Giannozzi et al., J. Chem. Phys. 152 154105 (2020);
          URL http://www.quantum-espresso.org", 
     in publications or presentations arising from this work. More details at
     http://www.quantum-espresso.org/quote

     Parallel version (MPI), running on     6 processors

     MPI processes distributed on     1 nodes
     0 MiB available memory on the printing compute node when the environment starts

     Reading input from si_scf.in

     Current dimensions of program PWSCF are:
     Max number of different atomic species (ntypx) = 10
     Max number of k-points (npk) =  40000
     Max angular momentum in pseudopotentials (lmaxx) =  4

     IMPORTANT: XC functional enforced from input :
     Exchange-correlation= PBE
                           (   1   4   3   4   0   0   0)
     Any further DFT definition will be discarded
     Please, verify this is what you really want


     R & G space division:  proc/nbgrp/npool/nimage =       6
     Subspace diagonalization in iterative solution of the eigenvalue problem:
     a serial algorithm will be used


     Parallelization info
     --------------------
     sticks:   dense  smooth     PW     G-vecs:    dense   smooth      PW
     Min         143      72     24                 2814      997     189
     Max         144      73     26                 2817      999     190
     Sum         859     433    151                16889     5985    1139

     Using Slab Decomposition



     bravais-lattice index     =            2
     lattice parameter (alat)  =      10.2631  a.u.
     unit-cell volume          =     270.2562 (a.u.)^3
     number of atoms/cell      =            2
     number of atomic types    =            1
     number of electrons       =         8.00
     number of Kohn-Sham states=            8
     kinetic-energy cutoff     =      30.0000  Ry
     charge density cutoff     =     240.0000  Ry
     scf convergence threshold =      1.0E-08
     mixing beta               =       0.3000
     number of iterations used =            8  plain     mixing
     Exchange-correlation= PBE
                           (   1   4   3   4   0   0   0)

     celldm(1)=  10.263100  celldm(2)=   0.000000  celldm(3)=   0.000000
     celldm(4)=   0.000000  celldm(5)=   0.000000  celldm(6)=   0.000000

     crystal axes: (cart. coord. in units of alat)
               a(1) = (  -0.500000   0.000000   0.500000 )  
               a(2) = (   0.000000   0.500000   0.500000 )  
               a(3) = (  -0.500000   0.500000   0.000000 )  

     reciprocal axes: (cart. coord. in units 2 pi/alat)
               b(1) = ( -1.000000 -1.000000  1.000000 )  
               b(2) = (  1.000000  1.000000  1.000000 )  
               b(3) = ( -1.000000  1.000000 -1.000000 )  


     PseudoPot. # 1 for Si read from file:
     ./pseudos/Si.pbe-n-rrkjus_psl.1.0.0.UPF
     MD5 check sum: fa25574f73a70a4139f2adfbefec430c
     Pseudo is Ultrasoft + core correction, Zval =  4.0
     Generated using &quot;atomic&quot; code by A. Dal Corso  v.6.3
     Using radial grid of 1141 points,  6 beta functions with: 
                l(1) =   0
                l(2) =   0
                l(3) =   1
                l(4) =   1
                l(5) =   2
                l(6) =   2
     Q(r) pseudized with 0 coefficients 


     atomic species   valence    mass     pseudopotential
     Si                4.00    28.08550     Si( 1.00)

     48 Sym. Ops., with inversion, found (24 have fractional translation)



   Cartesian axes

     site n.     atom                  positions (alat units)
         1        Si     tau(   1) = (   0.0000000   0.0000000   0.0000000  )
         2        Si     tau(   2) = (  -0.2500000   0.2500000   0.2500000  )

     number of k points=    29  Marzari-Vanderbilt smearing, width (Ry)=  0.0200
                       cart. coord. in units 2pi/alat
        k(    1) = (   0.0000000   0.0000000   0.0000000), wk =   0.0039062
        k(    2) = (  -0.1250000   0.1250000  -0.1250000), wk =   0.0312500
        k(    3) = (  -0.2500000   0.2500000  -0.2500000), wk =   0.0312500
        k(    4) = (  -0.3750000   0.3750000  -0.3750000), wk =   0.0312500
        k(    5) = (   0.5000000  -0.5000000   0.5000000), wk =   0.0156250
        k(    6) = (   0.0000000   0.2500000   0.0000000), wk =   0.0234375
        k(    7) = (  -0.1250000   0.3750000  -0.1250000), wk =   0.0937500
        k(    8) = (  -0.2500000   0.5000000  -0.2500000), wk =   0.0937500
        k(    9) = (   0.6250000  -0.3750000   0.6250000), wk =   0.0937500
        k(   10) = (   0.5000000  -0.2500000   0.5000000), wk =   0.0937500
        k(   11) = (   0.3750000  -0.1250000   0.3750000), wk =   0.0937500
        k(   12) = (   0.2500000   0.0000000   0.2500000), wk =   0.0468750
        k(   13) = (   0.0000000   0.5000000   0.0000000), wk =   0.0234375
        k(   14) = (  -0.1250000   0.6250000  -0.1250000), wk =   0.0937500
        k(   15) = (   0.7500000  -0.2500000   0.7500000), wk =   0.0937500
        k(   16) = (   0.6250000  -0.1250000   0.6250000), wk =   0.0937500
        k(   17) = (   0.5000000   0.0000000   0.5000000), wk =   0.0468750
        k(   18) = (   0.0000000   0.7500000   0.0000000), wk =   0.0234375
        k(   19) = (   0.8750000  -0.1250000   0.8750000), wk =   0.0937500
        k(   20) = (   0.7500000   0.0000000   0.7500000), wk =   0.0468750
        k(   21) = (   0.0000000  -1.0000000   0.0000000), wk =   0.0117188
        k(   22) = (  -0.2500000   0.5000000   0.0000000), wk =   0.0937500
        k(   23) = (   0.6250000  -0.3750000   0.8750000), wk =   0.1875000
        k(   24) = (   0.5000000  -0.2500000   0.7500000), wk =   0.0937500
        k(   25) = (   0.7500000  -0.2500000   1.0000000), wk =   0.0937500
        k(   26) = (   0.6250000  -0.1250000   0.8750000), wk =   0.1875000
        k(   27) = (   0.5000000   0.0000000   0.7500000), wk =   0.0937500
        k(   28) = (  -0.2500000  -1.0000000   0.0000000), wk =   0.0468750
        k(   29) = (  -0.5000000  -1.0000000   0.0000000), wk =   0.0234375

     Dense  grid:    16889 G-vectors     FFT dimensions: (  36,  36,  36)

     Smooth grid:     5985 G-vectors     FFT dimensions: (  32,  32,  32)

     Estimated max dynamical RAM per process >      11.10 MB

     Estimated total dynamical RAM >      66.60 MB

     Initial potential from superposition of free atoms

     starting charge       7.9989, renormalised to       8.0000
     Starting wfcs are    8 randomized atomic wfcs

     total cpu time spent up to now is        0.2 secs

     Self-consistent Calculation

     iteration #  1     ecut=    30.00 Ry     beta= 0.30
     Davidson diagonalization with overlap
     ethr =  1.00E-02,  avg # of iterations =  3.8

     Threshold (ethr) on eigenvalues was too large:
     Diagonalizing with lowered threshold

     Davidson diagonalization with overlap
     ethr =  6.48E-04,  avg # of iterations =  1.9

     total cpu time spent up to now is        0.4 secs

     WARNING: integrated charge=     8.00024824, expected=     8.00000000

     total energy              =     -22.84248623 Ry
     estimated scf accuracy    <       0.05570351 Ry

     iteration #  2     ecut=    30.00 Ry     beta= 0.30
     Davidson diagonalization with overlap
     ethr =  6.96E-04,  avg # of iterations =  1.0

     total cpu time spent up to now is        0.5 secs

     WARNING: integrated charge=     8.00146059, expected=     8.00000000

     total energy              =     -22.83712903 Ry
     estimated scf accuracy    <       0.02370996 Ry

     iteration #  3     ecut=    30.00 Ry     beta= 0.30
     Davidson diagonalization with overlap
     ethr =  2.96E-04,  avg # of iterations =  1.6

     total cpu time spent up to now is        0.6 secs

     WARNING: integrated charge=     8.00359155, expected=     8.00000000

     total energy              =     -22.83725610 Ry
     estimated scf accuracy    <       0.00033125 Ry

     iteration #  4     ecut=    30.00 Ry     beta= 0.30
     Davidson diagonalization with overlap
     ethr =  4.14E-06,  avg # of iterations =  6.7

     total cpu time spent up to now is        0.8 secs

     WARNING: integrated charge=     8.00383869, expected=     8.00000000

     total energy              =     -22.83754927 Ry
     estimated scf accuracy    <       0.00003323 Ry

     iteration #  5     ecut=    30.00 Ry     beta= 0.30
     Davidson diagonalization with overlap
     ethr =  4.15E-07,  avg # of iterations =  1.2

     total cpu time spent up to now is        0.9 secs

     WARNING: integrated charge=     8.00375052, expected=     8.00000000

     total energy              =     -22.83752776 Ry
     estimated scf accuracy    <       0.00000032 Ry

     iteration #  6     ecut=    30.00 Ry     beta= 0.30
     Davidson diagonalization with overlap
     ethr =  3.96E-09,  avg # of iterations =  3.0

     total cpu time spent up to now is        1.0 secs

     WARNING: integrated charge=     8.00367319, expected=     8.00000000

     total energy              =     -22.83752556 Ry
     estimated scf accuracy    <       0.00000030 Ry

     iteration #  7     ecut=    30.00 Ry     beta= 0.30
     Davidson diagonalization with overlap
     ethr =  3.81E-09,  avg # of iterations =  1.1

     total cpu time spent up to now is        1.1 secs

     WARNING: integrated charge=     8.00369461, expected=     8.00000000

     total energy              =     -22.83753192 Ry
     estimated scf accuracy    <       0.00000002 Ry

     iteration #  8     ecut=    30.00 Ry     beta= 0.30
     Davidson diagonalization with overlap
     ethr =  1.98E-10,  avg # of iterations =  2.2

     total cpu time spent up to now is        1.2 secs

     End of self-consistent calculation

          k = 0.0000 0.0000 0.0000 (   749 PWs)   bands (ev):

    -5.7594   6.2023   6.2023   6.2023   8.7639   8.7639   8.7639   9.5600

          k =-0.1250 0.1250-0.1250 (   743 PWs)   bands (ev):

    -5.5554   4.6023   5.9130   5.9130   8.7020   9.1887   9.1887  10.9082

          k =-0.2500 0.2500-0.2500 (   754 PWs)   bands (ev):

    -4.9600   2.2734   5.4416   5.4416   8.2288   9.7076   9.7076  13.1170

          k =-0.3750 0.3750-0.3750 (   763 PWs)   bands (ev):

    -4.0665   0.2532   5.1142   5.1142   7.8655   9.6537   9.6537  14.0873

          k = 0.5000-0.5000 0.5000 (   754 PWs)   bands (ev):

    -3.4287  -0.7693   5.0023   5.0023   7.7377   9.5429   9.5429  13.9339

          k = 0.0000 0.2500 0.0000 (   745 PWs)   bands (ev):

    -5.4866   4.8674   5.3947   5.3947   8.2130   9.9053   9.9053  10.5945

          k =-0.1250 0.3750-0.1250 (   757 PWs)   bands (ev):

    -5.0181   2.9764   4.8825   4.9587   8.3499   9.9078  10.6702  10.9562

          k =-0.2500 0.5000-0.2500 (   746 PWs)   bands (ev):

    -4.2034   0.9156   4.3669   4.6143   8.4493   9.8431  10.6676  11.6728

          k = 0.6250-0.3750 0.6250 (   753 PWs)   bands (ev):

    -3.3422  -0.5478   3.9211   4.6387   8.3956   9.7176  10.3040  13.5738

          k = 0.5000-0.2500 0.5000 (   750 PWs)   bands (ev):

    -3.5867  -0.1772   3.7393   4.9354   8.5615   9.8269  10.0714  14.1187

          k = 0.3750-0.1250 0.3750 (   748 PWs)   bands (ev):

    -4.5097   1.5749   3.8902   5.4274   8.9196   9.8788  10.0603  12.5009

          k = 0.2500 0.0000 0.2500 (   753 PWs)   bands (ev):

    -5.2193   3.5167   4.5726   5.9090   9.2419   9.3249   9.5627  11.7497

          k = 0.0000 0.5000 0.0000 (   729 PWs)   bands (ev):

    -4.6779   2.6835   4.3110   4.3110   7.3323   9.3371  11.9596  11.9596

          k =-0.1250 0.6250-0.1250 (   751 PWs)   bands (ev):

    -3.9681   1.2596   3.5302   3.9927   7.5534   9.0985  12.1996  12.4721

          k = 0.7500-0.2500 0.7500 (   748 PWs)   bands (ev):

    -3.0423  -0.1823   2.6667   3.9958   7.7229  10.6529  11.9463  12.1231

          k = 0.6250-0.1250 0.6250 (   744 PWs)   bands (ev):

    -2.8380  -0.4407   2.2081   4.3144   8.0472  11.6693  11.6832  13.1625

          k = 0.5000 0.0000 0.5000 (   754 PWs)   bands (ev):

    -3.7163   0.7201   2.4482   4.8732   8.6520  10.9908  11.3381  12.3469

          k = 0.0000 0.7500 0.0000 (   753 PWs)   bands (ev):

    -3.3657   0.4552   3.5940   3.5940   6.8178   7.7435  14.2423  14.2423

          k = 0.8750-0.1250 0.8750 (   747 PWs)   bands (ev):

    -2.4687  -0.6298   2.7650   3.5179   7.0976   8.1709  14.4683  14.5550

          k = 0.7500 0.0000 0.7500 (   740 PWs)   bands (ev):

    -2.0299  -1.0263   1.8991   3.7755   7.4070  10.3328  13.6698  14.2197

          k = 0.0000-1.0000 0.0000 (   740 PWs)   bands (ev):

    -1.6162  -1.6162   3.3483   3.3483   6.9130   6.9130  16.3031  16.3031

          k =-0.2500 0.5000 0.0000 (   755 PWs)   bands (ev):

    -4.4305   1.9109   3.4879   4.7734   8.6499  10.1027  10.3998  11.7046

          k = 0.6250-0.3750 0.8750 (   747 PWs)   bands (ev):

    -3.5424   0.3589   2.8798   4.2717   9.0802   9.7572  11.2226  12.1401

          k = 0.5000-0.2500 0.7500 (   750 PWs)   bands (ev):

    -2.8902  -0.5861   2.7510   4.0419   9.2689   9.3365  12.1144  13.3237

          k = 0.7500-0.2500 1.0000 (   755 PWs)   bands (ev):

    -3.1672   0.2362   2.8386   3.4417   8.1500   8.8504  11.9566  14.1918

          k = 0.6250-0.1250 0.8750 (   748 PWs)   bands (ev):

    -2.2926  -0.7317   2.1405   3.2409   8.5918  10.4859  11.4790  13.6419

          k = 0.5000 0.0000 0.7500 (   747 PWs)   bands (ev):

    -2.6431  -0.3685   1.9736   3.6170   9.0716  10.7482  11.4181  13.2336

          k =-0.2500-1.0000 0.0000 (   742 PWs)   bands (ev):

    -1.5383  -1.5383   2.7841   2.7841   8.1740   8.1740  14.0488  14.0488

          k =-0.5000-1.0000 0.0000 (   744 PWs)   bands (ev):

    -1.4524  -1.4524   2.3483   2.3483  10.4752  10.4752  11.2041  11.2041

     the Fermi energy is     6.5674 ev

     WARNING: integrated charge=     8.00368161, expected=     8.00000000

!    total energy              =     -22.83753377 Ry
     estimated scf accuracy    <          3.2E-09 Ry
     smearing contrib. (-TS)   =       0.00009049 Ry
     internal energy E=F+TS    =     -22.83762427 Ry

     The total energy is F=E-TS. E is the sum of the following terms:
     one-electron contribution =       5.16798191 Ry
     hartree contribution      =       1.10203263 Ry
     xc contribution           =     -12.31178401 Ry
     ewald contribution        =     -16.79585481 Ry

     convergence has been achieved in   8 iterations

     Writing all to output data dir ./tmp/si.save/ :
     XML data file, charge density, pseudopotentials, collected wavefunctions

     init_run     :      0.09s CPU      0.10s WALL (       1 calls)
     electrons    :      0.99s CPU      1.09s WALL (       1 calls)

     Called by init_run:
     wfcinit      :      0.03s CPU      0.03s WALL (       1 calls)
     potinit      :      0.01s CPU      0.01s WALL (       1 calls)
     hinit0       :      0.04s CPU      0.04s WALL (       1 calls)

     Called by electrons:
     c_bands      :      0.71s CPU      0.77s WALL (       9 calls)
     sum_band     :      0.19s CPU      0.20s WALL (       9 calls)
     v_of_rho     :      0.03s CPU      0.03s WALL (       9 calls)
     newd         :      0.06s CPU      0.08s WALL (       9 calls)
     mix_rho      :      0.01s CPU      0.01s WALL (       9 calls)

     Called by c_bands:
     init_us_2    :      0.01s CPU      0.01s WALL (     551 calls)
     cegterg      :      0.67s CPU      0.72s WALL (     261 calls)

     Called by *egterg:
     cdiaghg      :      0.04s CPU      0.04s WALL (     882 calls)
     h_psi        :      0.53s CPU      0.57s WALL (     940 calls)
     s_psi        :      0.01s CPU      0.02s WALL (     940 calls)
     g_psi        :      0.00s CPU      0.00s WALL (     650 calls)

     Called by h_psi:
     h_psi:calbec :      0.06s CPU      0.07s WALL (     940 calls)
     vloc_psi     :      0.45s CPU      0.48s WALL (     940 calls)
     add_vuspsi   :      0.01s CPU      0.02s WALL (     940 calls)

     General routines
     calbec       :      0.08s CPU      0.10s WALL (    1201 calls)
     fft          :      0.03s CPU      0.03s WALL (     116 calls)
     ffts         :      0.00s CPU      0.00s WALL (      18 calls)
     fftw         :      0.50s CPU      0.52s WALL (   13102 calls)
     interpolate  :      0.00s CPU      0.00s WALL (       9 calls)
     davcio       :      0.00s CPU      0.01s WALL (     909 calls)

     Parallel routines

     PWSCF        :      1.13s CPU      1.27s WALL


   This run was terminated on:  12:41: 1   5Nov2025            

=------------------------------------------------------------------------------=
   JOB DONE.
=------------------------------------------------------------------------------=
